
     Program PWSCF v.5.3.0 (svn rev. 11974) starts on  4Apr2016 at 15:39:56 

     This program is part of the open-source Quantum ESPRESSO suite
     for quantum simulation of materials; please cite
         "P. Giannozzi et al., J. Phys.:Condens. Matter 21 395502 (2009);
          URL http://www.quantum-espresso.org", 
     in publications or presentations arising from this work. More details at
     http://www.quantum-espresso.org/quote

     Parallel version (MPI), running on     1 processors
     Waiting for input...
     Reading input from standard input

     Current dimensions of program PWSCF are:
     Max number of different atomic species (ntypx) = 10
     Max number of k-points (npk) =  40000
     Max angular momentum in pseudopotentials (lmaxx) =  3

     Subspace diagonalization in iterative solution of the eigenvalue problem:
     a serial algorithm will be used


     G-vector sticks info
     --------------------
     sticks:   dense  smooth     PW     G-vecs:    dense   smooth      PW
     Sum        1417    1417    421                35557    35557    5601



     bravais-lattice index     =            0
     lattice parameter (alat)  =      10.1554  a.u.
     unit-cell volume          =     740.5892 (a.u.)^3
     number of atoms/cell      =            1
     number of atomic types    =            1
     number of electrons       =         8.00
     number of Kohn-Sham states=            4
     kinetic-energy cutoff     =      50.0000  Ry
     charge density cutoff     =     200.0000  Ry
     convergence threshold     =      1.0E-12
     mixing beta               =       0.7000
     number of iterations used =            8  plain     mixing
     Exchange-correlation      = SLA-PW-PBX-PBC ( 1  4  3  4 0 0)

     celldm(1)=  10.155410  celldm(2)=   0.000000  celldm(3)=   0.000000
     celldm(4)=   0.000000  celldm(5)=   0.000000  celldm(6)=   0.000000

     crystal axes: (cart. coord. in units of alat)
               a(1) = (  -0.707107   0.000000   0.707107 )  
               a(2) = (   0.000000   0.707107   0.707107 )  
               a(3) = (  -0.707107   0.707107   0.000000 )  

     reciprocal axes: (cart. coord. in units 2 pi/alat)
               b(1) = ( -0.707107 -0.707107  0.707107 )  
               b(2) = (  0.707107  0.707107  0.707107 )  
               b(3) = ( -0.707107  0.707107 -0.707107 )  


     PseudoPot. # 1 for Ar read from file:
     /home/junhao/espresso/espresso-5.3.0/pseudo/Ar.pbe-hgh.UPF
     MD5 check sum: 116d1b824486a6f7266751d5801019fc
     Pseudo is Norm-conserving, Zval =  8.0
     Generated in analytical, separable form
     Using radial grid of 1161 points,  3 beta functions with: 
                l(1) =   0
                l(2) =   0
                l(3) =   1

     atomic species   valence    mass     pseudopotential
        Ar             8.00    39.94800     Ar( 1.00)

     48 Sym. Ops., with inversion, found



   Cartesian axes

     site n.     atom                  positions (alat units)
         1           Ar  tau(   1) = (   0.0000000   0.0000000   0.0000000  )

     number of k points=    47
                       cart. coord. in units 2pi/alat
        k(    1) = (   0.0000000   0.0000000   0.0000000), wk =   0.0020000
        k(    2) = (  -0.0707107   0.0707107  -0.0707107), wk =   0.0160000
        k(    3) = (  -0.1414214   0.1414214  -0.1414214), wk =   0.0160000
        k(    4) = (  -0.2121320   0.2121320  -0.2121320), wk =   0.0160000
        k(    5) = (  -0.2828427   0.2828427  -0.2828427), wk =   0.0160000
        k(    6) = (   0.3535534  -0.3535534   0.3535534), wk =   0.0080000
        k(    7) = (   0.0000000   0.1414214   0.0000000), wk =   0.0120000
        k(    8) = (  -0.0707107   0.2121320  -0.0707107), wk =   0.0480000
        k(    9) = (  -0.1414214   0.2828427  -0.1414214), wk =   0.0480000
        k(   10) = (  -0.2121320   0.3535534  -0.2121320), wk =   0.0480000
        k(   11) = (   0.4242641  -0.2828427   0.4242641), wk =   0.0480000
        k(   12) = (   0.3535534  -0.2121320   0.3535534), wk =   0.0480000
        k(   13) = (   0.2828427  -0.1414214   0.2828427), wk =   0.0480000
        k(   14) = (   0.2121320  -0.0707107   0.2121320), wk =   0.0480000
        k(   15) = (   0.1414214   0.0000000   0.1414214), wk =   0.0240000
        k(   16) = (   0.0000000   0.2828427   0.0000000), wk =   0.0120000
        k(   17) = (  -0.0707107   0.3535534  -0.0707107), wk =   0.0480000
        k(   18) = (  -0.1414214   0.4242641  -0.1414214), wk =   0.0480000
        k(   19) = (   0.4949747  -0.2121320   0.4949747), wk =   0.0480000
        k(   20) = (   0.4242641  -0.1414214   0.4242641), wk =   0.0480000
        k(   21) = (   0.3535534  -0.0707107   0.3535534), wk =   0.0480000
        k(   22) = (   0.2828427   0.0000000   0.2828427), wk =   0.0240000
        k(   23) = (   0.0000000   0.4242641   0.0000000), wk =   0.0120000
        k(   24) = (  -0.0707107   0.4949747  -0.0707107), wk =   0.0480000
        k(   25) = (   0.5656854  -0.1414214   0.5656854), wk =   0.0480000
        k(   26) = (   0.4949747  -0.0707107   0.4949747), wk =   0.0480000
        k(   27) = (   0.4242641  -0.0000000   0.4242641), wk =   0.0240000
        k(   28) = (   0.0000000   0.5656854   0.0000000), wk =   0.0120000
        k(   29) = (   0.6363961  -0.0707107   0.6363961), wk =   0.0480000
        k(   30) = (   0.5656854   0.0000000   0.5656854), wk =   0.0240000
        k(   31) = (   0.0000000  -0.7071068   0.0000000), wk =   0.0060000
        k(   32) = (  -0.1414214   0.2828427   0.0000000), wk =   0.0480000
        k(   33) = (  -0.2121320   0.3535534  -0.0707107), wk =   0.0960000
        k(   34) = (   0.4242641  -0.2828427   0.5656854), wk =   0.0960000
        k(   35) = (   0.3535534  -0.2121320   0.4949747), wk =   0.0480000
        k(   36) = (  -0.1414214   0.4242641  -0.0000000), wk =   0.0480000
        k(   37) = (   0.4949747  -0.2121320   0.6363961), wk =   0.0960000
        k(   38) = (   0.4242641  -0.1414214   0.5656854), wk =   0.0960000
        k(   39) = (   0.3535534  -0.0707107   0.4949747), wk =   0.0960000
        k(   40) = (   0.2828427   0.0000000   0.4242641), wk =   0.0480000
        k(   41) = (   0.5656854  -0.1414214   0.7071068), wk =   0.0480000
        k(   42) = (   0.4949747  -0.0707107   0.6363961), wk =   0.0960000
        k(   43) = (   0.4242641  -0.0000000   0.5656854), wk =   0.0480000
        k(   44) = (  -0.1414214  -0.7071068   0.0000000), wk =   0.0240000
        k(   45) = (   0.4242641  -0.1414214   0.7071068), wk =   0.0480000
        k(   46) = (   0.3535534  -0.0707107   0.6363961), wk =   0.0480000
        k(   47) = (  -0.2828427  -0.7071068   0.0000000), wk =   0.0240000

     Dense  grid:    35557 G-vectors     FFT dimensions: (  45,  45,  45)

     Largest allocated arrays     est. size (Mb)     dimensions
        Kohn-Sham Wavefunctions         0.27 Mb     (    4477,    4)
        NL pseudopotentials             0.34 Mb     (    4477,    5)
        Each V/rho on FFT grid          1.39 Mb     (   91125)
        Each G-vector array             0.27 Mb     (   35557)
        G-vector shells                 0.00 Mb     (     351)
     Largest temporary arrays     est. size (Mb)     dimensions
        Each subspace H/S matrix        0.00 Mb     (       4,    4)
        Each <psi_i|beta_j> matrix      0.00 Mb     (       5,    4)
        Arrays for rho mixing          11.12 Mb     (   91125,    8)

     Initial potential from superposition of free atoms

     starting charge    7.00000, renormalised to    8.00000

     negative rho (up, down):  6.600E-05 0.000E+00
     Starting wfc are    9 randomized atomic wfcs

     total cpu time spent up to now is        1.8 secs

     per-process dynamical memory:    38.0 Mb

     Self-consistent Calculation

     iteration #  1     ecut=    50.00 Ry     beta=0.70
     CG style diagonalization
     ethr =  1.00E-02,  avg # of iterations =  3.0

     total cpu time spent up to now is        4.0 secs

     total energy              =     -42.04373838 Ry
     Harris-Foulkes estimate   =     -42.21674993 Ry
     estimated scf accuracy    <       0.24364213 Ry

     iteration #  2     ecut=    50.00 Ry     beta=0.70
     CG style diagonalization
     ethr =  3.05E-03,  avg # of iterations =  4.0

     total cpu time spent up to now is        6.6 secs

     total energy              =     -42.11792853 Ry
     Harris-Foulkes estimate   =     -42.13758024 Ry
     estimated scf accuracy    <       0.03291603 Ry

     iteration #  3     ecut=    50.00 Ry     beta=0.70
     CG style diagonalization
     ethr =  4.11E-04,  avg # of iterations =  3.8

     total cpu time spent up to now is        9.2 secs

     total energy              =     -42.12356708 Ry
     Harris-Foulkes estimate   =     -42.12363081 Ry
     estimated scf accuracy    <       0.00011328 Ry

     iteration #  4     ecut=    50.00 Ry     beta=0.70
     CG style diagonalization
     ethr =  1.42E-06,  avg # of iterations =  4.3

     total cpu time spent up to now is       12.0 secs

     total energy              =     -42.12367593 Ry
     Harris-Foulkes estimate   =     -42.12367850 Ry
     estimated scf accuracy    <       0.00000625 Ry

     iteration #  5     ecut=    50.00 Ry     beta=0.70
     CG style diagonalization
     ethr =  7.82E-08,  avg # of iterations =  4.0

     total cpu time spent up to now is       14.7 secs

     total energy              =     -42.12367725 Ry
     Harris-Foulkes estimate   =     -42.12367890 Ry
     estimated scf accuracy    <       0.00000322 Ry

     iteration #  6     ecut=    50.00 Ry     beta=0.70
     CG style diagonalization
     ethr =  4.02E-08,  avg # of iterations =  3.8

     total cpu time spent up to now is       17.3 secs

     total energy              =     -42.12367778 Ry
     Harris-Foulkes estimate   =     -42.12367778 Ry
     estimated scf accuracy    <       0.00000007 Ry

     iteration #  7     ecut=    50.00 Ry     beta=0.70
     CG style diagonalization
     ethr =  8.95E-10,  avg # of iterations =  4.0

     total cpu time spent up to now is       20.0 secs

     total energy              =     -42.12367779 Ry
     Harris-Foulkes estimate   =     -42.12367779 Ry
     estimated scf accuracy    <          1.9E-09 Ry

     iteration #  8     ecut=    50.00 Ry     beta=0.70
     CG style diagonalization
     ethr =  2.41E-11,  avg # of iterations =  4.2

     total cpu time spent up to now is       22.8 secs

     total energy              =     -42.12367779 Ry
     Harris-Foulkes estimate   =     -42.12367779 Ry
     estimated scf accuracy    <          1.6E-11 Ry

     iteration #  9     ecut=    50.00 Ry     beta=0.70
     CG style diagonalization
     ethr =  2.01E-13,  avg # of iterations =  4.4

     total cpu time spent up to now is       25.7 secs

     total energy              =     -42.12367779 Ry
     Harris-Foulkes estimate   =     -42.12367779 Ry
     estimated scf accuracy    <          1.2E-12 Ry

     iteration # 10     ecut=    50.00 Ry     beta=0.70
     CG style diagonalization
     ethr =  1.00E-13,  avg # of iterations =  3.0

     total cpu time spent up to now is       27.8 secs

     End of self-consistent calculation

          k = 0.0000 0.0000 0.0000 (  4477 PWs)   bands (ev):

   -22.4159  -8.3150  -8.3150  -8.3150

          k =-0.0707 0.0707-0.0707 (  4441 PWs)   bands (ev):

   -22.4150  -8.3210  -8.3152  -8.3152

          k =-0.1414 0.1414-0.1414 (  4441 PWs)   bands (ev):

   -22.4144  -8.3410  -8.3175  -8.3175

          k =-0.2121 0.2121-0.2121 (  4426 PWs)   bands (ev):

   -22.4133  -8.3638  -8.3205  -8.3205

          k =-0.2828 0.2828-0.2828 (  4413 PWs)   bands (ev):

   -22.4125  -8.3823  -8.3227  -8.3227

          k = 0.3536-0.3536 0.3536 (  4446 PWs)   bands (ev):

   -22.4128  -8.3900  -8.3249  -8.3249

          k = 0.0000 0.1414 0.0000 (  4448 PWs)   bands (ev):

   -22.4151  -8.3210  -8.3171  -8.3171

          k =-0.0707 0.2121-0.0707 (  4434 PWs)   bands (ev):

   -22.4143  -8.3360  -8.3194  -8.3180

          k =-0.1414 0.2828-0.1414 (  4435 PWs)   bands (ev):

   -22.4136  -8.3570  -8.3231  -8.3215

          k =-0.2121 0.3536-0.2121 (  4424 PWs)   bands (ev):

   -22.4127  -8.3760  -8.3254  -8.3252

          k = 0.4243-0.2828 0.4243 (  4420 PWs)   bands (ev):

   -22.4123  -8.3865  -8.3282  -8.3257

          k = 0.3536-0.2121 0.3536 (  4430 PWs)   bands (ev):

   -22.4125  -8.3843  -8.3297  -8.3243

          k = 0.2828-0.1414 0.2828 (  4429 PWs)   bands (ev):

   -22.4130  -8.3699  -8.3280  -8.3212

          k = 0.2121-0.0707 0.2121 (  4427 PWs)   bands (ev):

   -22.4137  -8.3492  -8.3244  -8.3174

          k = 0.1414 0.0000 0.1414 (  4439 PWs)   bands (ev):

   -22.4146  -8.3314  -8.3192  -8.3150

          k = 0.0000 0.2828 0.0000 (  4424 PWs)   bands (ev):

   -22.4138  -8.3395  -8.3230  -8.3230

          k =-0.0707 0.3536-0.0707 (  4437 PWs)   bands (ev):

   -22.4134  -8.3546  -8.3278  -8.3271

          k =-0.1414 0.4243-0.1414 (  4415 PWs)   bands (ev):

   -22.4124  -8.3694  -8.3328  -8.3293

          k = 0.4950-0.2121 0.4950 (  4421 PWs)   bands (ev):

   -22.4121  -8.3794  -8.3388  -8.3299

          k = 0.4243-0.1414 0.4243 (  4401 PWs)   bands (ev):

   -22.4117  -8.3790  -8.3421  -8.3273

          k = 0.3536-0.0707 0.3536 (  4417 PWs)   bands (ev):

   -22.4123  -8.3715  -8.3416  -8.3238

          k = 0.2828 0.0000 0.2828 (  4425 PWs)   bands (ev):

   -22.4130  -8.3605  -8.3349  -8.3196

          k = 0.0000 0.4243 0.0000 (  4428 PWs)   bands (ev):

   -22.4128  -8.3620  -8.3315  -8.3315

          k =-0.0707 0.4950-0.0707 (  4417 PWs)   bands (ev):

   -22.4121  -8.3714  -8.3372  -8.3343

          k = 0.5657-0.1414 0.5657 (  4413 PWs)   bands (ev):

   -22.4117  -8.3756  -8.3460  -8.3350

          k = 0.4950-0.0707 0.4950 (  4421 PWs)   bands (ev):

   -22.4117  -8.3717  -8.3564  -8.3331

          k = 0.4243-0.0000 0.4243 (  4420 PWs)   bands (ev):

   -22.4119  -8.3685  -8.3563  -8.3288

          k = 0.0000 0.5657 0.0000 (  4404 PWs)   bands (ev):

   -22.4115  -8.3780  -8.3380  -8.3380

          k = 0.6364-0.0707 0.6364 (  4412 PWs)   bands (ev):

   -22.4114  -8.3809  -8.3433  -8.3395

          k = 0.5657 0.0000 0.5657 (  4392 PWs)   bands (ev):

   -22.4110  -8.3757  -8.3517  -8.3368

          k = 0.0000-0.7071 0.0000 (  4432 PWs)   bands (ev):

   -22.4117  -8.3846  -8.3418  -8.3418

          k =-0.1414 0.2828 0.0000 (  4444 PWs)   bands (ev):

   -22.4139  -8.3480  -8.3269  -8.3205

          k =-0.2121 0.3536-0.0707 (  4429 PWs)   bands (ev):

   -22.4129  -8.3641  -8.3327  -8.3233

          k = 0.4243-0.2828 0.5657 (  4423 PWs)   bands (ev):

   -22.4123  -8.3776  -8.3363  -8.3266

          k = 0.3536-0.2121 0.4950 (  4430 PWs)   bands (ev):

   -22.4122  -8.3827  -8.3378  -8.3286

          k =-0.1414 0.4243-0.0000 (  4445 PWs)   bands (ev):

   -22.4129  -8.3650  -8.3358  -8.3302

          k = 0.4950-0.2121 0.6364 (  4425 PWs)   bands (ev):

   -22.4121  -8.3728  -8.3428  -8.3326

          k = 0.4243-0.1414 0.5657 (  4414 PWs)   bands (ev):

   -22.4117  -8.3747  -8.3492  -8.3331

          k = 0.3536-0.0707 0.4950 (  4418 PWs)   bands (ev):

   -22.4118  -8.3725  -8.3514  -8.3306

          k = 0.2828 0.0000 0.4243 (  4418 PWs)   bands (ev):

   -22.4122  -8.3686  -8.3447  -8.3266

          k = 0.5657-0.1414 0.7071 (  4414 PWs)   bands (ev):

   -22.4116  -8.3763  -8.3423  -8.3378

          k = 0.4950-0.0707 0.6364 (  4408 PWs)   bands (ev):

   -22.4113  -8.3742  -8.3511  -8.3386

          k = 0.4243-0.0000 0.5657 (  4430 PWs)   bands (ev):

   -22.4118  -8.3664  -8.3625  -8.3360

          k =-0.1414-0.7071 0.0000 (  4400 PWs)   bands (ev):

   -22.4111  -8.3800  -8.3447  -8.3410

          k = 0.4243-0.1414 0.7071 (  4423 PWs)   bands (ev):

   -22.4117  -8.3709  -8.3531  -8.3366

          k = 0.3536-0.0707 0.6364 (  4410 PWs)   bands (ev):

   -22.4114  -8.3666  -8.3592  -8.3386

          k =-0.2828-0.7071 0.0000 (  4408 PWs)   bands (ev):

   -22.4113  -8.3695  -8.3554  -8.3420

     highest occupied level (ev):    -8.3150

!    total energy              =     -42.12367779 Ry
     Harris-Foulkes estimate   =     -42.12367779 Ry
     estimated scf accuracy    <          1.1E-13 Ry

     The total energy is the sum of the following terms:

     one-electron contribution =     -31.27840174 Ry
     hartree contribution      =      16.86965184 Ry
     xc contribution           =      -7.28373193 Ry
     ewald contribution        =     -20.43119597 Ry

     convergence has been achieved in  10 iterations

     Writing output data file ar.save

     init_run     :      1.75s CPU      1.76s WALL (       1 calls)
     electrons    :     25.93s CPU     25.98s WALL (       1 calls)

     Called by init_run:
     wfcinit      :      1.48s CPU      1.49s WALL (       1 calls)
     potinit      :      0.08s CPU      0.08s WALL (       1 calls)

     Called by electrons:
     c_bands      :     21.94s CPU     21.97s WALL (      10 calls)
     sum_band     :      3.24s CPU      3.24s WALL (      10 calls)
     v_of_rho     :      0.72s CPU      0.73s WALL (      11 calls)
     mix_rho      :      0.09s CPU      0.09s WALL (      10 calls)

     Called by c_bands:
     init_us_2    :      0.86s CPU      0.86s WALL (     987 calls)
     ccgdiagg     :     16.53s CPU     16.55s WALL (     470 calls)
     wfcrot       :      6.17s CPU      6.18s WALL (     470 calls)

     Called by sum_band:

     Called by *cgdiagg:
     h_psi        :     21.61s CPU     21.66s WALL (    5988 calls)
     cdiaghg      :      0.01s CPU      0.01s WALL (     470 calls)

     Called by h_psi:
     add_vuspsi   :      0.15s CPU      0.16s WALL (    5988 calls)
     h_1psi       :     15.59s CPU     15.65s WALL (    5518 calls)

     General routines
     calbec       :      0.24s CPU      0.24s WALL (   11506 calls)
     fft          :      0.25s CPU      0.25s WALL (     120 calls)
     fftw         :     22.00s CPU     21.96s WALL (   17146 calls)
     davcio       :      0.00s CPU      0.00s WALL (      47 calls)

     Parallel routines
     fft_scatter  :      1.11s CPU      1.16s WALL (   17266 calls)

     PWSCF        :    27.83s CPU        27.89s WALL


   This run was terminated on:  15:40:24   4Apr2016            

=------------------------------------------------------------------------------=
   JOB DONE.
=------------------------------------------------------------------------------=
