
     Program PWSCF v.5.3.0 (svn rev. 11974) starts on  5Apr2016 at  8:51:38 

     This program is part of the open-source Quantum ESPRESSO suite
     for quantum simulation of materials; please cite
         "P. Giannozzi et al., J. Phys.:Condens. Matter 21 395502 (2009);
          URL http://www.quantum-espresso.org", 
     in publications or presentations arising from this work. More details at
     http://www.quantum-espresso.org/quote

     Parallel version (MPI), running on     8 processors
     R & G space division:  proc/nbgrp/npool/nimage =       8
     Waiting for input...
     Reading input from standard input

     Current dimensions of program PWSCF are:
     Max number of different atomic species (ntypx) = 10
     Max number of k-points (npk) =  40000
     Max angular momentum in pseudopotentials (lmaxx) =  3

     Subspace diagonalization in iterative solution of the eigenvalue problem:
     a serial algorithm will be used


     Parallelization info
     --------------------
     sticks:   dense  smooth     PW     G-vecs:    dense   smooth      PW
     Min         133     133     39                 2873     2873     464
     Max         134     134     40                 2875     2875     466
     Sum        1069    1069    313                22995    22995    3719



     bravais-lattice index     =            0
     lattice parameter (alat)  =       8.0174  a.u.
     unit-cell volume          =     364.4101 (a.u.)^3
     number of atoms/cell      =            2
     number of atomic types    =            1
     number of electrons       =         8.00
     number of Kohn-Sham states=            4
     kinetic-energy cutoff     =      60.0000  Ry
     charge density cutoff     =     240.0000  Ry
     convergence threshold     =      1.0E-12
     mixing beta               =       0.7000
     number of iterations used =            8  plain     mixing
     Exchange-correlation      =  SLA  PW   PBE  PBE ( 1  4  3  4 0 0)

     celldm(1)=   8.017429  celldm(2)=   0.000000  celldm(3)=   0.000000
     celldm(4)=   0.000000  celldm(5)=   0.000000  celldm(6)=   0.000000

     crystal axes: (cart. coord. in units of alat)
               a(1) = (   0.000000   0.707107   0.707107 )  
               a(2) = (   0.707107   0.000000   0.707107 )  
               a(3) = (   0.707107   0.707107   0.000000 )  

     reciprocal axes: (cart. coord. in units 2 pi/alat)
               b(1) = ( -0.707107  0.707107  0.707107 )  
               b(2) = (  0.707107 -0.707107  0.707107 )  
               b(3) = (  0.707107  0.707107 -0.707107 )  


     PseudoPot. # 1 for Si read from file:
     /home/junhao/espresso/espresso-5.3.0/pseudo/Si.pbe-rrkj.UPF
     MD5 check sum: cf7ab5690cd9a85b22c4813f7e365554
     Pseudo is Norm-conserving, Zval =  4.0
     Generated by new atomic code, or converted to UPF format
     Using radial grid of  883 points,  3 beta functions with: 
                l(1) =   0
                l(2) =   0
                l(3) =   1

     atomic species   valence    mass     pseudopotential
        Si             4.00    28.08550     Si( 1.00)

     48 Sym. Ops., with inversion, found (24 have fractional translation)



   Cartesian axes

     site n.     atom                  positions (alat units)
         1           Si  tau(   1) = (   0.0000000   0.0000000   0.0000000  )
         2           Si  tau(   2) = (   0.3535534   0.3535534   0.3535534  )

     number of k points=    29
                       cart. coord. in units 2pi/alat
        k(    1) = (   0.0000000   0.0000000   0.0000000), wk =   0.0039062
        k(    2) = (   0.0883883   0.0883883  -0.0883883), wk =   0.0312500
        k(    3) = (   0.1767767   0.1767767  -0.1767767), wk =   0.0312500
        k(    4) = (   0.2651650   0.2651650  -0.2651650), wk =   0.0312500
        k(    5) = (  -0.3535534  -0.3535534   0.3535534), wk =   0.0156250
        k(    6) = (   0.1767767   0.0000000   0.0000000), wk =   0.0234375
        k(    7) = (   0.2651650   0.0883883  -0.0883883), wk =   0.0937500
        k(    8) = (   0.3535534   0.1767767  -0.1767767), wk =   0.0937500
        k(    9) = (  -0.2651650  -0.4419417   0.4419417), wk =   0.0937500
        k(   10) = (  -0.1767767  -0.3535534   0.3535534), wk =   0.0937500
        k(   11) = (  -0.0883883  -0.2651650   0.2651650), wk =   0.0937500
        k(   12) = (   0.0000000  -0.1767767   0.1767767), wk =   0.0468750
        k(   13) = (   0.3535534   0.0000000   0.0000000), wk =   0.0234375
        k(   14) = (   0.4419417   0.0883883  -0.0883883), wk =   0.0937500
        k(   15) = (  -0.1767767  -0.5303301   0.5303301), wk =   0.0937500
        k(   16) = (  -0.0883883  -0.4419417   0.4419417), wk =   0.0937500
        k(   17) = (   0.0000000  -0.3535534   0.3535534), wk =   0.0468750
        k(   18) = (   0.5303301   0.0000000   0.0000000), wk =   0.0234375
        k(   19) = (  -0.0883883  -0.6187184   0.6187184), wk =   0.0937500
        k(   20) = (   0.0000000  -0.5303301   0.5303301), wk =   0.0468750
        k(   21) = (  -0.7071068   0.0000000   0.0000000), wk =   0.0117188
        k(   22) = (   0.3535534   0.1767767   0.0000000), wk =   0.0937500
        k(   23) = (  -0.2651650  -0.4419417   0.6187184), wk =   0.1875000
        k(   24) = (  -0.1767767  -0.3535534   0.5303301), wk =   0.0937500
        k(   25) = (  -0.1767767  -0.5303301   0.7071068), wk =   0.0937500
        k(   26) = (  -0.0883883  -0.4419417   0.6187184), wk =   0.1875000
        k(   27) = (   0.0000000  -0.3535534   0.5303301), wk =   0.0937500
        k(   28) = (  -0.7071068   0.1767767   0.0000000), wk =   0.0468750
        k(   29) = (  -0.7071068   0.3535534   0.0000000), wk =   0.0234375

     Dense  grid:    22995 G-vectors     FFT dimensions: (  40,  40,  40)

     Largest allocated arrays     est. size (Mb)     dimensions
        Kohn-Sham Wavefunctions         0.02 Mb     (     369,    4)
        NL pseudopotentials             0.06 Mb     (     369,   10)
        Each V/rho on FFT grid          0.12 Mb     (    8000)
        Each G-vector array             0.02 Mb     (    2874)
        G-vector shells                 0.00 Mb     (     253)
     Largest temporary arrays     est. size (Mb)     dimensions
        Each subspace H/S matrix        0.00 Mb     (       4,    4)
        Each <psi_i|beta_j> matrix      0.00 Mb     (      10,    4)
        Arrays for rho mixing           0.98 Mb     (    8000,    8)

     Initial potential from superposition of free atoms

     starting charge    7.99889, renormalised to    8.00000
     Starting wfc are    8 randomized atomic wfcs

     total cpu time spent up to now is        0.3 secs

     per-process dynamical memory:    11.4 Mb

     Self-consistent Calculation

     iteration #  1     ecut=    60.00 Ry     beta=0.70
     CG style diagonalization
     ethr =  1.00E-02,  avg # of iterations =  2.5

     Threshold (ethr) on eigenvalues was too large:
     Diagonalizing with lowered threshold

     CG style diagonalization
     ethr =  3.81E-04,  avg # of iterations =  2.9

     total cpu time spent up to now is        0.7 secs

     total energy              =     -15.69131797 Ry
     Harris-Foulkes estimate   =     -15.69576084 Ry
     estimated scf accuracy    <       0.03427051 Ry

     iteration #  2     ecut=    60.00 Ry     beta=0.70
     CG style diagonalization
     ethr =  4.28E-04,  avg # of iterations =  3.0

     total cpu time spent up to now is        1.0 secs

     total energy              =     -15.69187073 Ry
     Harris-Foulkes estimate   =     -15.69199907 Ry
     estimated scf accuracy    <       0.00251739 Ry

     iteration #  3     ecut=    60.00 Ry     beta=0.70
     CG style diagonalization
     ethr =  3.15E-05,  avg # of iterations =  3.2

     total cpu time spent up to now is        1.3 secs

     total energy              =     -15.69204561 Ry
     Harris-Foulkes estimate   =     -15.69204861 Ry
     estimated scf accuracy    <       0.00001649 Ry

     iteration #  4     ecut=    60.00 Ry     beta=0.70
     CG style diagonalization
     ethr =  2.06E-07,  avg # of iterations =  5.6

     total cpu time spent up to now is        1.7 secs

     total energy              =     -15.69210417 Ry
     Harris-Foulkes estimate   =     -15.69210761 Ry
     estimated scf accuracy    <       0.00000758 Ry

     iteration #  5     ecut=    60.00 Ry     beta=0.70
     CG style diagonalization
     ethr =  9.47E-08,  avg # of iterations =  3.4

     total cpu time spent up to now is        2.0 secs

     total energy              =     -15.69210504 Ry
     Harris-Foulkes estimate   =     -15.69210507 Ry
     estimated scf accuracy    <       0.00000016 Ry

     iteration #  6     ecut=    60.00 Ry     beta=0.70
     CG style diagonalization
     ethr =  1.94E-09,  avg # of iterations =  4.8

     total cpu time spent up to now is        2.4 secs

     total energy              =     -15.69210517 Ry
     Harris-Foulkes estimate   =     -15.69210519 Ry
     estimated scf accuracy    <       0.00000006 Ry

     iteration #  7     ecut=    60.00 Ry     beta=0.70
     CG style diagonalization
     ethr =  7.89E-10,  avg # of iterations =  3.3

     total cpu time spent up to now is        2.7 secs

     total energy              =     -15.69210518 Ry
     Harris-Foulkes estimate   =     -15.69210518 Ry
     estimated scf accuracy    <          1.2E-09 Ry

     iteration #  8     ecut=    60.00 Ry     beta=0.70
     CG style diagonalization
     ethr =  1.46E-11,  avg # of iterations =  5.0

     total cpu time spent up to now is        3.1 secs

     total energy              =     -15.69210518 Ry
     Harris-Foulkes estimate   =     -15.69210518 Ry
     estimated scf accuracy    <          6.4E-12 Ry

     iteration #  9     ecut=    60.00 Ry     beta=0.70
     CG style diagonalization
     ethr =  1.00E-13,  avg # of iterations =  5.4

     total cpu time spent up to now is        3.5 secs

     End of self-consistent calculation

          k = 0.0000 0.0000 0.0000 (  2837 PWs)   bands (ev):

    -6.6179   3.5004   3.5004   3.5004

          k = 0.0884 0.0884-0.0884 (  2824 PWs)   bands (ev):

    -6.4621   1.7856   3.2889   3.2889

          k = 0.1768 0.1768-0.1768 (  2860 PWs)   bands (ev):

    -6.0126  -0.0687   2.9208   2.9208

          k = 0.2652 0.2652-0.2652 (  2869 PWs)   bands (ev):

    -5.3635  -1.6046   2.6521   2.6521

          k =-0.3536-0.3536 0.3536 (  2884 PWs)   bands (ev):

    -4.9424  -2.3272   2.5579   2.5579

          k = 0.1768 0.0000 0.0000 (  2826 PWs)   bands (ev):

    -6.4092   1.7335   2.9320   2.9320

          k = 0.2652 0.0884-0.0884 (  2853 PWs)   bands (ev):

    -6.0534   0.3267   2.4979   2.5390

          k = 0.3536 0.1768-0.1768 (  2879 PWs)   bands (ev):

    -5.4500  -1.2023   2.0052   2.3144

          k =-0.2652-0.4419 0.4419 (  2869 PWs)   bands (ev):

    -4.8593  -2.2455   1.6630   2.3114

          k =-0.1768-0.3536 0.3536 (  2858 PWs)   bands (ev):

    -5.0199  -1.9898   1.5596   2.5211

          k =-0.0884-0.2652 0.2652 (  2861 PWs)   bands (ev):

    -5.6753  -0.7163   1.7489   2.8862

          k = 0.0000-0.1768 0.1768 (  2850 PWs)   bands (ev):

    -6.2065   0.7619   2.3457   3.2511

          k = 0.3536 0.0000 0.0000 (  2858 PWs)   bands (ev):

    -5.7919  -0.1342   2.1116   2.1116

          k = 0.4419 0.0884-0.0884 (  2861 PWs)   bands (ev):

    -5.2578  -1.2093   1.5259   1.8593

          k =-0.1768-0.5303 0.5303 (  2864 PWs)   bands (ev):

    -4.5951  -2.2371   0.8730   1.8489

          k =-0.0884-0.4419 0.4419 (  2861 PWs)   bands (ev):

    -4.4706  -2.3997   0.5541   2.0784

          k = 0.0000-0.3536 0.3536 (  2854 PWs)   bands (ev):

    -5.0889  -1.5555   0.7767   2.4860

          k = 0.5303 0.0000 0.0000 (  2854 PWs)   bands (ev):

    -4.7943  -1.8872   1.5543   1.5543

          k =-0.0884-0.6187 0.6187 (  2859 PWs)   bands (ev):

    -4.1276  -2.7239   1.0048   1.4908

          k = 0.0000-0.5303 0.5303 (  2870 PWs)   bands (ev):

    -3.8621  -2.9859   0.4250   1.6812

          k =-0.7071 0.0000 0.0000 (  2874 PWs)   bands (ev):

    -3.4678  -3.4678   1.3617   1.3617

          k = 0.3536 0.1768 0.0000 (  2861 PWs)   bands (ev):

    -5.6103  -0.6353   1.5323   2.4130

          k =-0.2652-0.4419 0.6187 (  2854 PWs)   bands (ev):

    -4.9614  -1.7813   1.0097   2.0739

          k =-0.1768-0.3536 0.5303 (  2848 PWs)   bands (ev):

    -4.5220  -2.4225   0.8646   1.9203

          k =-0.1768-0.5303 0.7071 (  2856 PWs)   bands (ev):

    -4.6602  -2.0526   1.0483   1.4984

          k =-0.0884-0.4419 0.6187 (  2862 PWs)   bands (ev):

    -4.0429  -2.7760   0.5706   1.3587

          k = 0.0000-0.3536 0.5303 (  2864 PWs)   bands (ev):

    -4.3059  -2.4839   0.4569   1.6223

          k =-0.7071 0.1768 0.0000 (  2862 PWs)   bands (ev):

    -3.4340  -3.4340   1.0219   1.0219

          k =-0.7071 0.3536 0.0000 (  2872 PWs)   bands (ev):

    -3.3988  -3.3988   0.7502   0.7502

     highest occupied level (ev):     3.5004

!    total energy              =     -15.69210518 Ry
     Harris-Foulkes estimate   =     -15.69210518 Ry
     estimated scf accuracy    <          7.2E-13 Ry

     The total energy is the sum of the following terms:

     one-electron contribution =       2.66217409 Ry
     hartree contribution      =       1.37181333 Ry
     xc contribution           =      -4.52304858 Ry
     ewald contribution        =     -15.20304402 Ry

     convergence has been achieved in   9 iterations

     Writing output data file si.save

     init_run     :      0.20s CPU      0.21s WALL (       1 calls)
     electrons    :      3.06s CPU      3.27s WALL (       1 calls)

     Called by init_run:
     wfcinit      :      0.14s CPU      0.14s WALL (       1 calls)
     potinit      :      0.02s CPU      0.02s WALL (       1 calls)

     Called by electrons:
     c_bands      :      2.57s CPU      2.75s WALL (      10 calls)
     sum_band     :      0.37s CPU      0.39s WALL (      10 calls)
     v_of_rho     :      0.10s CPU      0.10s WALL (      10 calls)
     mix_rho      :      0.02s CPU      0.02s WALL (      10 calls)

     Called by c_bands:
     init_us_2    :      0.09s CPU      0.09s WALL (     609 calls)
     ccgdiagg     :      2.05s CPU      2.20s WALL (     290 calls)
     wfcrot       :      0.58s CPU      0.61s WALL (     261 calls)

     Called by sum_band:

     Called by *cgdiagg:
     h_psi        :      2.34s CPU      2.48s WALL (    3877 calls)
     cdiaghg      :      0.01s CPU      0.01s WALL (     261 calls)

     Called by h_psi:
     add_vuspsi   :      0.05s CPU      0.06s WALL (    3877 calls)
     h_1psi       :      1.80s CPU      1.91s WALL (    3616 calls)

     General routines
     calbec       :      0.10s CPU      0.13s WALL (    7493 calls)
     fft          :      0.05s CPU      0.05s WALL (     111 calls)
     fftw         :      2.37s CPU      2.39s WALL (   10712 calls)
     davcio       :      0.00s CPU      0.00s WALL (      29 calls)

     Parallel routines
     fft_scatter  :      0.35s CPU      0.41s WALL (   10823 calls)

     PWSCF        :     3.42s CPU         3.64s WALL


   This run was terminated on:   8:51:42   5Apr2016            

=------------------------------------------------------------------------------=
   JOB DONE.
=------------------------------------------------------------------------------=
