
     Program PWSCF v.5.3.0 (svn rev. 11974) starts on  5Apr2016 at  8:54:24 

     This program is part of the open-source Quantum ESPRESSO suite
     for quantum simulation of materials; please cite
         "P. Giannozzi et al., J. Phys.:Condens. Matter 21 395502 (2009);
          URL http://www.quantum-espresso.org", 
     in publications or presentations arising from this work. More details at
     http://www.quantum-espresso.org/quote

     Parallel version (MPI), running on     8 processors
     R & G space division:  proc/nbgrp/npool/nimage =       8
     Waiting for input...
     Reading input from standard input

     Current dimensions of program PWSCF are:
     Max number of different atomic species (ntypx) = 10
     Max number of k-points (npk) =  40000
     Max angular momentum in pseudopotentials (lmaxx) =  3

     Subspace diagonalization in iterative solution of the eigenvalue problem:
     a serial algorithm will be used


     Parallelization info
     --------------------
     sticks:   dense  smooth     PW     G-vecs:    dense   smooth      PW
     Min         263     263     74                 8094     8094    1214
     Max         264     264     75                 8099     8099    1217
     Sum        2107    2107    595                64767    64767    9721



     bravais-lattice index     =            0
     lattice parameter (alat)  =       8.0174  a.u.
     unit-cell volume          =     364.4101 (a.u.)^3
     number of atoms/cell      =            2
     number of atomic types    =            1
     number of electrons       =         8.00
     number of Kohn-Sham states=            4
     kinetic-energy cutoff     =     120.0000  Ry
     charge density cutoff     =     480.0000  Ry
     convergence threshold     =      1.0E-12
     mixing beta               =       0.7000
     number of iterations used =            8  plain     mixing
     Exchange-correlation      =  SLA  PW   PBE  PBE ( 1  4  3  4 0 0)

     celldm(1)=   8.017429  celldm(2)=   0.000000  celldm(3)=   0.000000
     celldm(4)=   0.000000  celldm(5)=   0.000000  celldm(6)=   0.000000

     crystal axes: (cart. coord. in units of alat)
               a(1) = (   0.000000   0.707107   0.707107 )  
               a(2) = (   0.707107   0.000000   0.707107 )  
               a(3) = (   0.707107   0.707107   0.000000 )  

     reciprocal axes: (cart. coord. in units 2 pi/alat)
               b(1) = ( -0.707107  0.707107  0.707107 )  
               b(2) = (  0.707107 -0.707107  0.707107 )  
               b(3) = (  0.707107  0.707107 -0.707107 )  


     PseudoPot. # 1 for Si read from file:
     /home/junhao/espresso/espresso-5.3.0/pseudo/Si.pbe-rrkj.UPF
     MD5 check sum: cf7ab5690cd9a85b22c4813f7e365554
     Pseudo is Norm-conserving, Zval =  4.0
     Generated by new atomic code, or converted to UPF format
     Using radial grid of  883 points,  3 beta functions with: 
                l(1) =   0
                l(2) =   0
                l(3) =   1

     atomic species   valence    mass     pseudopotential
        Si             4.00    28.08550     Si( 1.00)

     48 Sym. Ops., with inversion, found (24 have fractional translation)



   Cartesian axes

     site n.     atom                  positions (alat units)
         1           Si  tau(   1) = (   0.0000000   0.0000000   0.0000000  )
         2           Si  tau(   2) = (   0.3535534   0.3535534   0.3535534  )

     number of k points=    29
                       cart. coord. in units 2pi/alat
        k(    1) = (   0.0000000   0.0000000   0.0000000), wk =   0.0039062
        k(    2) = (   0.0883883   0.0883883  -0.0883883), wk =   0.0312500
        k(    3) = (   0.1767767   0.1767767  -0.1767767), wk =   0.0312500
        k(    4) = (   0.2651650   0.2651650  -0.2651650), wk =   0.0312500
        k(    5) = (  -0.3535534  -0.3535534   0.3535534), wk =   0.0156250
        k(    6) = (   0.1767767   0.0000000   0.0000000), wk =   0.0234375
        k(    7) = (   0.2651650   0.0883883  -0.0883883), wk =   0.0937500
        k(    8) = (   0.3535534   0.1767767  -0.1767767), wk =   0.0937500
        k(    9) = (  -0.2651650  -0.4419417   0.4419417), wk =   0.0937500
        k(   10) = (  -0.1767767  -0.3535534   0.3535534), wk =   0.0937500
        k(   11) = (  -0.0883883  -0.2651650   0.2651650), wk =   0.0937500
        k(   12) = (   0.0000000  -0.1767767   0.1767767), wk =   0.0468750
        k(   13) = (   0.3535534   0.0000000   0.0000000), wk =   0.0234375
        k(   14) = (   0.4419417   0.0883883  -0.0883883), wk =   0.0937500
        k(   15) = (  -0.1767767  -0.5303301   0.5303301), wk =   0.0937500
        k(   16) = (  -0.0883883  -0.4419417   0.4419417), wk =   0.0937500
        k(   17) = (   0.0000000  -0.3535534   0.3535534), wk =   0.0468750
        k(   18) = (   0.5303301   0.0000000   0.0000000), wk =   0.0234375
        k(   19) = (  -0.0883883  -0.6187184   0.6187184), wk =   0.0937500
        k(   20) = (   0.0000000  -0.5303301   0.5303301), wk =   0.0468750
        k(   21) = (  -0.7071068   0.0000000   0.0000000), wk =   0.0117188
        k(   22) = (   0.3535534   0.1767767   0.0000000), wk =   0.0937500
        k(   23) = (  -0.2651650  -0.4419417   0.6187184), wk =   0.1875000
        k(   24) = (  -0.1767767  -0.3535534   0.5303301), wk =   0.0937500
        k(   25) = (  -0.1767767  -0.5303301   0.7071068), wk =   0.0937500
        k(   26) = (  -0.0883883  -0.4419417   0.6187184), wk =   0.1875000
        k(   27) = (   0.0000000  -0.3535534   0.5303301), wk =   0.0937500
        k(   28) = (  -0.7071068   0.1767767   0.0000000), wk =   0.0468750
        k(   29) = (  -0.7071068   0.3535534   0.0000000), wk =   0.0234375

     Dense  grid:    64767 G-vectors     FFT dimensions: (  60,  60,  60)

     Largest allocated arrays     est. size (Mb)     dimensions
        Kohn-Sham Wavefunctions         0.06 Mb     (    1026,    4)
        NL pseudopotentials             0.16 Mb     (    1026,   10)
        Each V/rho on FFT grid          0.44 Mb     (   28800)
        Each G-vector array             0.06 Mb     (    8099)
        G-vector shells                 0.00 Mb     (     519)
     Largest temporary arrays     est. size (Mb)     dimensions
        Each subspace H/S matrix        0.00 Mb     (       4,    4)
        Each <psi_i|beta_j> matrix      0.00 Mb     (      10,    4)
        Arrays for rho mixing           3.52 Mb     (   28800,    8)

     Initial potential from superposition of free atoms

     starting charge    7.99889, renormalised to    8.00000
     Starting wfc are    8 randomized atomic wfcs

     total cpu time spent up to now is        0.8 secs

     per-process dynamical memory:    15.2 Mb

     Self-consistent Calculation

     iteration #  1     ecut=   120.00 Ry     beta=0.70
     CG style diagonalization
     ethr =  1.00E-02,  avg # of iterations =  2.5

     Threshold (ethr) on eigenvalues was too large:
     Diagonalizing with lowered threshold

     CG style diagonalization
     ethr =  3.81E-04,  avg # of iterations =  2.9

     total cpu time spent up to now is        2.5 secs

     total energy              =     -15.69131203 Ry
     Harris-Foulkes estimate   =     -15.69574817 Ry
     estimated scf accuracy    <       0.03427282 Ry

     iteration #  2     ecut=   120.00 Ry     beta=0.70
     CG style diagonalization
     ethr =  4.28E-04,  avg # of iterations =  3.0

     total cpu time spent up to now is        3.4 secs

     total energy              =     -15.69185968 Ry
     Harris-Foulkes estimate   =     -15.69199523 Ry
     estimated scf accuracy    <       0.00252494 Ry

     iteration #  3     ecut=   120.00 Ry     beta=0.70
     CG style diagonalization
     ethr =  3.16E-05,  avg # of iterations =  3.2

     total cpu time spent up to now is        4.4 secs

     total energy              =     -15.69205467 Ry
     Harris-Foulkes estimate   =     -15.69205983 Ry
     estimated scf accuracy    <       0.00002121 Ry

     iteration #  4     ecut=   120.00 Ry     beta=0.70
     CG style diagonalization
     ethr =  2.65E-07,  avg # of iterations =  5.5

     total cpu time spent up to now is        5.9 secs

     total energy              =     -15.69211174 Ry
     Harris-Foulkes estimate   =     -15.69211354 Ry
     estimated scf accuracy    <       0.00000393 Ry

     iteration #  5     ecut=   120.00 Ry     beta=0.70
     CG style diagonalization
     ethr =  4.92E-08,  avg # of iterations =  3.9

     total cpu time spent up to now is        7.1 secs

     total energy              =     -15.69211234 Ry
     Harris-Foulkes estimate   =     -15.69211238 Ry
     estimated scf accuracy    <       0.00000019 Ry

     iteration #  6     ecut=   120.00 Ry     beta=0.70
     CG style diagonalization
     ethr =  2.32E-09,  avg # of iterations =  4.5

     total cpu time spent up to now is        8.4 secs

     total energy              =     -15.69211239 Ry
     Harris-Foulkes estimate   =     -15.69211243 Ry
     estimated scf accuracy    <       0.00000010 Ry

     iteration #  7     ecut=   120.00 Ry     beta=0.70
     CG style diagonalization
     ethr =  1.25E-09,  avg # of iterations =  3.3

     total cpu time spent up to now is        9.4 secs

     total energy              =     -15.69211240 Ry
     Harris-Foulkes estimate   =     -15.69211240 Ry
     estimated scf accuracy    <          2.2E-10 Ry

     iteration #  8     ecut=   120.00 Ry     beta=0.70
     CG style diagonalization
     ethr =  2.77E-12,  avg # of iterations =  6.1

     total cpu time spent up to now is       11.1 secs

     total energy              =     -15.69211240 Ry
     Harris-Foulkes estimate   =     -15.69211240 Ry
     estimated scf accuracy    <          6.3E-11 Ry

     iteration #  9     ecut=   120.00 Ry     beta=0.70
     CG style diagonalization
     ethr =  7.89E-13,  avg # of iterations =  3.3

     total cpu time spent up to now is       12.1 secs

     total energy              =     -15.69211240 Ry
     Harris-Foulkes estimate   =     -15.69211240 Ry
     estimated scf accuracy    <          1.1E-12 Ry

     iteration # 10     ecut=   120.00 Ry     beta=0.70
     CG style diagonalization
     ethr =  1.00E-13,  avg # of iterations =  3.6

     total cpu time spent up to now is       13.2 secs

     End of self-consistent calculation

          k = 0.0000 0.0000 0.0000 (  7991 PWs)   bands (ev):

    -6.6179   3.5003   3.5003   3.5003

          k = 0.0884 0.0884-0.0884 (  8039 PWs)   bands (ev):

    -6.4621   1.7856   3.2889   3.2889

          k = 0.1768 0.1768-0.1768 (  8075 PWs)   bands (ev):

    -6.0126  -0.0687   2.9207   2.9207

          k = 0.2652 0.2652-0.2652 (  8054 PWs)   bands (ev):

    -5.3635  -1.6046   2.6521   2.6521

          k =-0.3536-0.3536 0.3536 (  8086 PWs)   bands (ev):

    -4.9425  -2.3272   2.5579   2.5579

          k = 0.1768 0.0000 0.0000 (  8052 PWs)   bands (ev):

    -6.4092   1.7334   2.9320   2.9320

          k = 0.2652 0.0884-0.0884 (  8081 PWs)   bands (ev):

    -6.0534   0.3267   2.4979   2.5389

          k = 0.3536 0.1768-0.1768 (  8084 PWs)   bands (ev):

    -5.4500  -1.2023   2.0052   2.3143

          k =-0.2652-0.4419 0.4419 (  8099 PWs)   bands (ev):

    -4.8593  -2.2455   1.6630   2.3114

          k =-0.1768-0.3536 0.3536 (  8091 PWs)   bands (ev):

    -5.0199  -1.9898   1.5596   2.5211

          k =-0.0884-0.2652 0.2652 (  8075 PWs)   bands (ev):

    -5.6753  -0.7163   1.7488   2.8861

          k = 0.0000-0.1768 0.1768 (  8080 PWs)   bands (ev):

    -6.2065   0.7619   2.3457   3.2511

          k = 0.3536 0.0000 0.0000 (  8108 PWs)   bands (ev):

    -5.7920  -0.1342   2.1116   2.1116

          k = 0.4419 0.0884-0.0884 (  8092 PWs)   bands (ev):

    -5.2578  -1.2093   1.5259   1.8593

          k =-0.1768-0.5303 0.5303 (  8095 PWs)   bands (ev):

    -4.5951  -2.2371   0.8730   1.8488

          k =-0.0884-0.4419 0.4419 (  8092 PWs)   bands (ev):

    -4.4706  -2.3997   0.5541   2.0784

          k = 0.0000-0.3536 0.3536 (  8088 PWs)   bands (ev):

    -5.0889  -1.5556   0.7767   2.4860

          k = 0.5303 0.0000 0.0000 (  8088 PWs)   bands (ev):

    -4.7943  -1.8872   1.5543   1.5543

          k =-0.0884-0.6187 0.6187 (  8085 PWs)   bands (ev):

    -4.1276  -2.7239   1.0048   1.4908

          k = 0.0000-0.5303 0.5303 (  8108 PWs)   bands (ev):

    -3.8622  -2.9860   0.4250   1.6812

          k =-0.7071 0.0000 0.0000 (  8144 PWs)   bands (ev):

    -3.4678  -3.4678   1.3617   1.3617

          k = 0.3536 0.1768 0.0000 (  8081 PWs)   bands (ev):

    -5.6104  -0.6353   1.5323   2.4130

          k =-0.2652-0.4419 0.6187 (  8089 PWs)   bands (ev):

    -4.9614  -1.7813   1.0097   2.0739

          k =-0.1768-0.3536 0.5303 (  8064 PWs)   bands (ev):

    -4.5221  -2.4225   0.8646   1.9203

          k =-0.1768-0.5303 0.7071 (  8097 PWs)   bands (ev):

    -4.6602  -2.0526   1.0483   1.4984

          k =-0.0884-0.4419 0.6187 (  8102 PWs)   bands (ev):

    -4.0429  -2.7760   0.5706   1.3587

          k = 0.0000-0.3536 0.5303 (  8094 PWs)   bands (ev):

    -4.3059  -2.4839   0.4569   1.6223

          k =-0.7071 0.1768 0.0000 (  8092 PWs)   bands (ev):

    -3.4341  -3.4341   1.0218   1.0218

          k =-0.7071 0.3536 0.0000 (  8088 PWs)   bands (ev):

    -3.3988  -3.3988   0.7502   0.7502

     highest occupied level (ev):     3.5003

!    total energy              =     -15.69211240 Ry
     Harris-Foulkes estimate   =     -15.69211240 Ry
     estimated scf accuracy    <          7.6E-13 Ry

     The total energy is the sum of the following terms:

     one-electron contribution =       2.66216962 Ry
     hartree contribution      =       1.37181363 Ry
     xc contribution           =      -4.52305165 Ry
     ewald contribution        =     -15.20304401 Ry

     convergence has been achieved in  10 iterations

     Writing output data file si.save

     init_run     :      0.65s CPU      0.72s WALL (       1 calls)
     electrons    :     11.84s CPU     12.48s WALL (       1 calls)

     Called by init_run:
     wfcinit      :      0.48s CPU      0.52s WALL (       1 calls)
     potinit      :      0.06s CPU      0.06s WALL (       1 calls)

     Called by electrons:
     c_bands      :      9.88s CPU     10.43s WALL (      11 calls)
     sum_band     :      1.46s CPU      1.51s WALL (      11 calls)
     v_of_rho     :      0.43s CPU      0.46s WALL (      11 calls)
     mix_rho      :      0.08s CPU      0.09s WALL (      11 calls)

     Called by c_bands:
     init_us_2    :      0.31s CPU      0.31s WALL (     667 calls)
     ccgdiagg     :      7.76s CPU      8.20s WALL (     319 calls)
     wfcrot       :      2.34s CPU      2.48s WALL (     290 calls)

     Called by sum_band:

     Called by *cgdiagg:
     h_psi        :      9.35s CPU      9.87s WALL (    4109 calls)
     cdiaghg      :      0.01s CPU      0.02s WALL (     290 calls)

     Called by h_psi:
     add_vuspsi   :      0.10s CPU      0.12s WALL (    4109 calls)
     h_1psi       :      7.11s CPU      7.50s WALL (    3819 calls)

     General routines
     calbec       :      0.51s CPU      0.55s WALL (    7928 calls)
     fft          :      0.17s CPU      0.18s WALL (     122 calls)
     fftw         :      8.85s CPU      9.09s WALL (   11466 calls)
     davcio       :      0.00s CPU      0.00s WALL (      29 calls)

     Parallel routines
     fft_scatter  :      1.15s CPU      1.41s WALL (   11588 calls)

     PWSCF        :    12.66s CPU        13.37s WALL


   This run was terminated on:   8:54:37   5Apr2016            

=------------------------------------------------------------------------------=
   JOB DONE.
=------------------------------------------------------------------------------=
