
     Program PWSCF v.5.3.0 (svn rev. 11974) starts on  5Apr2016 at  8:53:38 

     This program is part of the open-source Quantum ESPRESSO suite
     for quantum simulation of materials; please cite
         "P. Giannozzi et al., J. Phys.:Condens. Matter 21 395502 (2009);
          URL http://www.quantum-espresso.org", 
     in publications or presentations arising from this work. More details at
     http://www.quantum-espresso.org/quote

     Parallel version (MPI), running on     8 processors
     R & G space division:  proc/nbgrp/npool/nimage =       8
     Waiting for input...
     Reading input from standard input

     Current dimensions of program PWSCF are:
     Max number of different atomic species (ntypx) = 10
     Max number of k-points (npk) =  40000
     Max angular momentum in pseudopotentials (lmaxx) =  3

     Subspace diagonalization in iterative solution of the eigenvalue problem:
     a serial algorithm will be used


     Parallelization info
     --------------------
     sticks:   dense  smooth     PW     G-vecs:    dense   smooth      PW
     Min         222     222     63                 6153     6153     953
     Max         223     223     64                 6154     6154     955
     Sum        1777    1777    511                49229    49229    7631



     bravais-lattice index     =            0
     lattice parameter (alat)  =       8.0174  a.u.
     unit-cell volume          =     364.4101 (a.u.)^3
     number of atoms/cell      =            2
     number of atomic types    =            1
     number of electrons       =         8.00
     number of Kohn-Sham states=            4
     kinetic-energy cutoff     =     100.0000  Ry
     charge density cutoff     =     400.0000  Ry
     convergence threshold     =      1.0E-12
     mixing beta               =       0.7000
     number of iterations used =            8  plain     mixing
     Exchange-correlation      =  SLA  PW   PBE  PBE ( 1  4  3  4 0 0)

     celldm(1)=   8.017429  celldm(2)=   0.000000  celldm(3)=   0.000000
     celldm(4)=   0.000000  celldm(5)=   0.000000  celldm(6)=   0.000000

     crystal axes: (cart. coord. in units of alat)
               a(1) = (   0.000000   0.707107   0.707107 )  
               a(2) = (   0.707107   0.000000   0.707107 )  
               a(3) = (   0.707107   0.707107   0.000000 )  

     reciprocal axes: (cart. coord. in units 2 pi/alat)
               b(1) = ( -0.707107  0.707107  0.707107 )  
               b(2) = (  0.707107 -0.707107  0.707107 )  
               b(3) = (  0.707107  0.707107 -0.707107 )  


     PseudoPot. # 1 for Si read from file:
     /home/junhao/espresso/espresso-5.3.0/pseudo/Si.pbe-rrkj.UPF
     MD5 check sum: cf7ab5690cd9a85b22c4813f7e365554
     Pseudo is Norm-conserving, Zval =  4.0
     Generated by new atomic code, or converted to UPF format
     Using radial grid of  883 points,  3 beta functions with: 
                l(1) =   0
                l(2) =   0
                l(3) =   1

     atomic species   valence    mass     pseudopotential
        Si             4.00    28.08550     Si( 1.00)

     24 Sym. Ops. (no inversion) found
          (note: 24 additional sym.ops. were found but ignored
           their fractional translations are incommensurate with FFT grid)


   Cartesian axes

     site n.     atom                  positions (alat units)
         1           Si  tau(   1) = (   0.0000000   0.0000000   0.0000000  )
         2           Si  tau(   2) = (   0.3535534   0.3535534   0.3535534  )

     number of k points=    29
                       cart. coord. in units 2pi/alat
        k(    1) = (   0.0000000   0.0000000   0.0000000), wk =   0.0039062
        k(    2) = (   0.0883883   0.0883883  -0.0883883), wk =   0.0312500
        k(    3) = (   0.1767767   0.1767767  -0.1767767), wk =   0.0312500
        k(    4) = (   0.2651650   0.2651650  -0.2651650), wk =   0.0312500
        k(    5) = (  -0.3535534  -0.3535534   0.3535534), wk =   0.0156250
        k(    6) = (   0.1767767   0.0000000   0.0000000), wk =   0.0234375
        k(    7) = (   0.2651650   0.0883883  -0.0883883), wk =   0.0937500
        k(    8) = (   0.3535534   0.1767767  -0.1767767), wk =   0.0937500
        k(    9) = (  -0.2651650  -0.4419417   0.4419417), wk =   0.0937500
        k(   10) = (  -0.1767767  -0.3535534   0.3535534), wk =   0.0937500
        k(   11) = (  -0.0883883  -0.2651650   0.2651650), wk =   0.0937500
        k(   12) = (   0.0000000  -0.1767767   0.1767767), wk =   0.0468750
        k(   13) = (   0.3535534   0.0000000   0.0000000), wk =   0.0234375
        k(   14) = (   0.4419417   0.0883883  -0.0883883), wk =   0.0937500
        k(   15) = (  -0.1767767  -0.5303301   0.5303301), wk =   0.0937500
        k(   16) = (  -0.0883883  -0.4419417   0.4419417), wk =   0.0937500
        k(   17) = (   0.0000000  -0.3535534   0.3535534), wk =   0.0468750
        k(   18) = (   0.5303301   0.0000000   0.0000000), wk =   0.0234375
        k(   19) = (  -0.0883883  -0.6187184   0.6187184), wk =   0.0937500
        k(   20) = (   0.0000000  -0.5303301   0.5303301), wk =   0.0468750
        k(   21) = (  -0.7071068   0.0000000   0.0000000), wk =   0.0117188
        k(   22) = (   0.3535534   0.1767767   0.0000000), wk =   0.0937500
        k(   23) = (  -0.2651650  -0.4419417   0.6187184), wk =   0.1875000
        k(   24) = (  -0.1767767  -0.3535534   0.5303301), wk =   0.0937500
        k(   25) = (  -0.1767767  -0.5303301   0.7071068), wk =   0.0937500
        k(   26) = (  -0.0883883  -0.4419417   0.6187184), wk =   0.1875000
        k(   27) = (   0.0000000  -0.3535534   0.5303301), wk =   0.0937500
        k(   28) = (  -0.7071068   0.1767767   0.0000000), wk =   0.0468750
        k(   29) = (  -0.7071068   0.3535534   0.0000000), wk =   0.0234375

     Dense  grid:    49229 G-vectors     FFT dimensions: (  54,  54,  54)

     Largest allocated arrays     est. size (Mb)     dimensions
        Kohn-Sham Wavefunctions         0.05 Mb     (     783,    4)
        NL pseudopotentials             0.12 Mb     (     783,   10)
        Each V/rho on FFT grid          0.31 Mb     (   20412)
        Each G-vector array             0.05 Mb     (    6153)
        G-vector shells                 0.00 Mb     (     433)
     Largest temporary arrays     est. size (Mb)     dimensions
        Each subspace H/S matrix        0.00 Mb     (       4,    4)
        Each <psi_i|beta_j> matrix      0.00 Mb     (      10,    4)
        Arrays for rho mixing           2.49 Mb     (   20412,    8)

     Initial potential from superposition of free atoms

     starting charge    7.99889, renormalised to    8.00000
     Starting wfc are    8 randomized atomic wfcs

     total cpu time spent up to now is        0.5 secs

     per-process dynamical memory:    13.6 Mb

     Self-consistent Calculation

     iteration #  1     ecut=   100.00 Ry     beta=0.70
     CG style diagonalization
     ethr =  1.00E-02,  avg # of iterations =  2.5

     Threshold (ethr) on eigenvalues was too large:
     Diagonalizing with lowered threshold

     CG style diagonalization
     ethr =  3.80E-04,  avg # of iterations =  2.9

     total cpu time spent up to now is        1.8 secs

     total energy              =     -15.69129374 Ry
     Harris-Foulkes estimate   =     -15.69578150 Ry
     estimated scf accuracy    <       0.03447561 Ry

     iteration #  2     ecut=   100.00 Ry     beta=0.70
     CG style diagonalization
     ethr =  4.31E-04,  avg # of iterations =  3.0

     total cpu time spent up to now is        2.4 secs

     total energy              =     -15.69187075 Ry
     Harris-Foulkes estimate   =     -15.69199433 Ry
     estimated scf accuracy    <       0.00249189 Ry

     iteration #  3     ecut=   100.00 Ry     beta=0.70
     CG style diagonalization
     ethr =  3.11E-05,  avg # of iterations =  3.2

     total cpu time spent up to now is        3.1 secs

     total energy              =     -15.69205219 Ry
     Harris-Foulkes estimate   =     -15.69205592 Ry
     estimated scf accuracy    <       0.00001896 Ry

     iteration #  4     ecut=   100.00 Ry     beta=0.70
     CG style diagonalization
     ethr =  2.37E-07,  avg # of iterations =  5.7

     total cpu time spent up to now is        4.2 secs

     total energy              =     -15.69211099 Ry
     Harris-Foulkes estimate   =     -15.69211345 Ry
     estimated scf accuracy    <       0.00000542 Ry

     iteration #  5     ecut=   100.00 Ry     beta=0.70
     CG style diagonalization
     ethr =  6.77E-08,  avg # of iterations =  3.6

     total cpu time spent up to now is        5.0 secs

     total energy              =     -15.69211166 Ry
     Harris-Foulkes estimate   =     -15.69211166 Ry
     estimated scf accuracy    <       0.00000010 Ry

     iteration #  6     ecut=   100.00 Ry     beta=0.70
     CG style diagonalization
     ethr =  1.22E-09,  avg # of iterations =  4.8

     total cpu time spent up to now is        6.0 secs

     total energy              =     -15.69211174 Ry
     Harris-Foulkes estimate   =     -15.69211176 Ry
     estimated scf accuracy    <       0.00000007 Ry

     iteration #  7     ecut=   100.00 Ry     beta=0.70
     CG style diagonalization
     ethr =  8.69E-10,  avg # of iterations =  3.3

     total cpu time spent up to now is        6.6 secs

     total energy              =     -15.69211174 Ry
     Harris-Foulkes estimate   =     -15.69211174 Ry
     estimated scf accuracy    <          7.6E-11 Ry

     iteration #  8     ecut=   100.00 Ry     beta=0.70
     CG style diagonalization
     ethr =  9.44E-13,  avg # of iterations =  6.6

     total cpu time spent up to now is        7.9 secs

     total energy              =     -15.69211174 Ry
     Harris-Foulkes estimate   =     -15.69211174 Ry
     estimated scf accuracy    <          3.5E-12 Ry

     iteration #  9     ecut=   100.00 Ry     beta=0.70
     CG style diagonalization
     ethr =  1.00E-13,  avg # of iterations =  4.4

     total cpu time spent up to now is        8.8 secs

     total energy              =     -15.69211174 Ry
     Harris-Foulkes estimate   =     -15.69211174 Ry
     estimated scf accuracy    <          6.0E-12 Ry

     iteration # 10     ecut=   100.00 Ry     beta=0.70
     CG style diagonalization
     ethr =  1.00E-13,  avg # of iterations =  3.1

     total cpu time spent up to now is        9.5 secs

     End of self-consistent calculation

          k = 0.0000 0.0000 0.0000 (  6183 PWs)   bands (ev):

    -6.6179   3.5003   3.5003   3.5003

          k = 0.0884 0.0884-0.0884 (  6144 PWs)   bands (ev):

    -6.4621   1.7856   3.2889   3.2889

          k = 0.1768 0.1768-0.1768 (  6126 PWs)   bands (ev):

    -6.0126  -0.0687   2.9208   2.9208

          k = 0.2652 0.2652-0.2652 (  6150 PWs)   bands (ev):

    -5.3635  -1.6046   2.6521   2.6521

          k =-0.3536-0.3536 0.3536 (  6164 PWs)   bands (ev):

    -4.9424  -2.3272   2.5579   2.5579

          k = 0.1768 0.0000 0.0000 (  6146 PWs)   bands (ev):

    -6.4092   1.7335   2.9320   2.9320

          k = 0.2652 0.0884-0.0884 (  6141 PWs)   bands (ev):

    -6.0534   0.3267   2.4979   2.5389

          k = 0.3536 0.1768-0.1768 (  6164 PWs)   bands (ev):

    -5.4500  -1.2023   2.0052   2.3143

          k =-0.2652-0.4419 0.4419 (  6160 PWs)   bands (ev):

    -4.8593  -2.2455   1.6630   2.3114

          k =-0.1768-0.3536 0.3536 (  6164 PWs)   bands (ev):

    -5.0199  -1.9898   1.5596   2.5211

          k =-0.0884-0.2652 0.2652 (  6151 PWs)   bands (ev):

    -5.6753  -0.7163   1.7488   2.8861

          k = 0.0000-0.1768 0.1768 (  6143 PWs)   bands (ev):

    -6.2065   0.7619   2.3457   3.2511

          k = 0.3536 0.0000 0.0000 (  6126 PWs)   bands (ev):

    -5.7920  -0.1342   2.1116   2.1116

          k = 0.4419 0.0884-0.0884 (  6155 PWs)   bands (ev):

    -5.2578  -1.2093   1.5259   1.8593

          k =-0.1768-0.5303 0.5303 (  6141 PWs)   bands (ev):

    -4.5951  -2.2371   0.8730   1.8488

          k =-0.0884-0.4419 0.4419 (  6157 PWs)   bands (ev):

    -4.4706  -2.3997   0.5541   2.0784

          k = 0.0000-0.3536 0.3536 (  6157 PWs)   bands (ev):

    -5.0889  -1.5555   0.7767   2.4860

          k = 0.5303 0.0000 0.0000 (  6174 PWs)   bands (ev):

    -4.7943  -1.8872   1.5543   1.5543

          k =-0.0884-0.6187 0.6187 (  6158 PWs)   bands (ev):

    -4.1276  -2.7239   1.0048   1.4908

          k = 0.0000-0.5303 0.5303 (  6169 PWs)   bands (ev):

    -3.8621  -2.9860   0.4250   1.6812

          k =-0.7071 0.0000 0.0000 (  6130 PWs)   bands (ev):

    -3.4678  -3.4678   1.3617   1.3617

          k = 0.3536 0.1768 0.0000 (  6152 PWs)   bands (ev):

    -5.6104  -0.6353   1.5323   2.4130

          k =-0.2652-0.4419 0.6187 (  6161 PWs)   bands (ev):

    -4.9614  -1.7813   1.0097   2.0739

          k =-0.1768-0.3536 0.5303 (  6146 PWs)   bands (ev):

    -4.5221  -2.4225   0.8646   1.9203

          k =-0.1768-0.5303 0.7071 (  6174 PWs)   bands (ev):

    -4.6602  -2.0526   1.0483   1.4984

          k =-0.0884-0.4419 0.6187 (  6138 PWs)   bands (ev):

    -4.0429  -2.7760   0.5706   1.3587

          k = 0.0000-0.3536 0.5303 (  6140 PWs)   bands (ev):

    -4.3059  -2.4839   0.4569   1.6223

          k =-0.7071 0.1768 0.0000 (  6150 PWs)   bands (ev):

    -3.4341  -3.4341   1.0219   1.0219

          k =-0.7071 0.3536 0.0000 (  6180 PWs)   bands (ev):

    -3.3988  -3.3988   0.7502   0.7502

     highest occupied level (ev):     3.5003

!    total energy              =     -15.69211174 Ry
     Harris-Foulkes estimate   =     -15.69211174 Ry
     estimated scf accuracy    <          1.0E-13 Ry

     The total energy is the sum of the following terms:

     one-electron contribution =       2.66217091 Ry
     hartree contribution      =       1.37181309 Ry
     xc contribution           =      -4.52305174 Ry
     ewald contribution        =     -15.20304401 Ry

     convergence has been achieved in  10 iterations

     Writing output data file si.save

     init_run     :      0.50s CPU      0.51s WALL (       1 calls)
     electrons    :      8.58s CPU      8.98s WALL (       1 calls)

     Called by init_run:
     wfcinit      :      0.36s CPU      0.36s WALL (       1 calls)
     potinit      :      0.04s CPU      0.04s WALL (       1 calls)

     Called by electrons:
     c_bands      :      7.25s CPU      7.57s WALL (      11 calls)
     sum_band     :      0.97s CPU      1.03s WALL (      11 calls)
     v_of_rho     :      0.31s CPU      0.32s WALL (      11 calls)
     mix_rho      :      0.06s CPU      0.06s WALL (      11 calls)

     Called by c_bands:
     init_us_2    :      0.23s CPU      0.21s WALL (     667 calls)
     ccgdiagg     :      5.69s CPU      5.97s WALL (     319 calls)
     wfcrot       :      1.74s CPU      1.78s WALL (     290 calls)

     Called by sum_band:

     Called by *cgdiagg:
     h_psi        :      6.87s CPU      7.14s WALL (    4222 calls)
     cdiaghg      :      0.01s CPU      0.02s WALL (     290 calls)

     Called by h_psi:
     add_vuspsi   :      0.07s CPU      0.10s WALL (    4222 calls)
     h_1psi       :      5.21s CPU      5.45s WALL (    3932 calls)

     General routines
     calbec       :      0.27s CPU      0.28s WALL (    8154 calls)
     fft          :      0.12s CPU      0.14s WALL (     122 calls)
     fftw         :      6.95s CPU      7.00s WALL (   11692 calls)
     davcio       :      0.00s CPU      0.00s WALL (      29 calls)

     Parallel routines
     fft_scatter  :      0.81s CPU      1.09s WALL (   11814 calls)

     PWSCF        :     9.22s CPU         9.64s WALL


   This run was terminated on:   8:53:48   5Apr2016            

=------------------------------------------------------------------------------=
   JOB DONE.
=------------------------------------------------------------------------------=
