
     Program PWSCF v.5.3.0 (svn rev. 11974) starts on  5Apr2016 at  8:51:55 

     This program is part of the open-source Quantum ESPRESSO suite
     for quantum simulation of materials; please cite
         "P. Giannozzi et al., J. Phys.:Condens. Matter 21 395502 (2009);
          URL http://www.quantum-espresso.org", 
     in publications or presentations arising from this work. More details at
     http://www.quantum-espresso.org/quote

     Parallel version (MPI), running on     8 processors
     R & G space division:  proc/nbgrp/npool/nimage =       8
     Waiting for input...
     Reading input from standard input

     Current dimensions of program PWSCF are:
     Max number of different atomic species (ntypx) = 10
     Max number of k-points (npk) =  40000
     Max angular momentum in pseudopotentials (lmaxx) =  3

     Subspace diagonalization in iterative solution of the eigenvalue problem:
     a serial algorithm will be used


     Parallelization info
     --------------------
     sticks:   dense  smooth     PW     G-vecs:    dense   smooth      PW
     Min         177     177     52                 4393     4393     696
     Max         178     178     53                 4396     4396     698
     Sum        1417    1417    421                35149    35149    5577



     bravais-lattice index     =            0
     lattice parameter (alat)  =       8.0174  a.u.
     unit-cell volume          =     364.4101 (a.u.)^3
     number of atoms/cell      =            2
     number of atomic types    =            1
     number of electrons       =         8.00
     number of Kohn-Sham states=            4
     kinetic-energy cutoff     =      80.0000  Ry
     charge density cutoff     =     320.0000  Ry
     convergence threshold     =      1.0E-12
     mixing beta               =       0.7000
     number of iterations used =            8  plain     mixing
     Exchange-correlation      =  SLA  PW   PBE  PBE ( 1  4  3  4 0 0)

     celldm(1)=   8.017429  celldm(2)=   0.000000  celldm(3)=   0.000000
     celldm(4)=   0.000000  celldm(5)=   0.000000  celldm(6)=   0.000000

     crystal axes: (cart. coord. in units of alat)
               a(1) = (   0.000000   0.707107   0.707107 )  
               a(2) = (   0.707107   0.000000   0.707107 )  
               a(3) = (   0.707107   0.707107   0.000000 )  

     reciprocal axes: (cart. coord. in units 2 pi/alat)
               b(1) = ( -0.707107  0.707107  0.707107 )  
               b(2) = (  0.707107 -0.707107  0.707107 )  
               b(3) = (  0.707107  0.707107 -0.707107 )  


     PseudoPot. # 1 for Si read from file:
     /home/junhao/espresso/espresso-5.3.0/pseudo/Si.pbe-rrkj.UPF
     MD5 check sum: cf7ab5690cd9a85b22c4813f7e365554
     Pseudo is Norm-conserving, Zval =  4.0
     Generated by new atomic code, or converted to UPF format
     Using radial grid of  883 points,  3 beta functions with: 
                l(1) =   0
                l(2) =   0
                l(3) =   1

     atomic species   valence    mass     pseudopotential
        Si             4.00    28.08550     Si( 1.00)

     24 Sym. Ops. (no inversion) found
          (note: 24 additional sym.ops. were found but ignored
           their fractional translations are incommensurate with FFT grid)


   Cartesian axes

     site n.     atom                  positions (alat units)
         1           Si  tau(   1) = (   0.0000000   0.0000000   0.0000000  )
         2           Si  tau(   2) = (   0.3535534   0.3535534   0.3535534  )

     number of k points=    29
                       cart. coord. in units 2pi/alat
        k(    1) = (   0.0000000   0.0000000   0.0000000), wk =   0.0039062
        k(    2) = (   0.0883883   0.0883883  -0.0883883), wk =   0.0312500
        k(    3) = (   0.1767767   0.1767767  -0.1767767), wk =   0.0312500
        k(    4) = (   0.2651650   0.2651650  -0.2651650), wk =   0.0312500
        k(    5) = (  -0.3535534  -0.3535534   0.3535534), wk =   0.0156250
        k(    6) = (   0.1767767   0.0000000   0.0000000), wk =   0.0234375
        k(    7) = (   0.2651650   0.0883883  -0.0883883), wk =   0.0937500
        k(    8) = (   0.3535534   0.1767767  -0.1767767), wk =   0.0937500
        k(    9) = (  -0.2651650  -0.4419417   0.4419417), wk =   0.0937500
        k(   10) = (  -0.1767767  -0.3535534   0.3535534), wk =   0.0937500
        k(   11) = (  -0.0883883  -0.2651650   0.2651650), wk =   0.0937500
        k(   12) = (   0.0000000  -0.1767767   0.1767767), wk =   0.0468750
        k(   13) = (   0.3535534   0.0000000   0.0000000), wk =   0.0234375
        k(   14) = (   0.4419417   0.0883883  -0.0883883), wk =   0.0937500
        k(   15) = (  -0.1767767  -0.5303301   0.5303301), wk =   0.0937500
        k(   16) = (  -0.0883883  -0.4419417   0.4419417), wk =   0.0937500
        k(   17) = (   0.0000000  -0.3535534   0.3535534), wk =   0.0468750
        k(   18) = (   0.5303301   0.0000000   0.0000000), wk =   0.0234375
        k(   19) = (  -0.0883883  -0.6187184   0.6187184), wk =   0.0937500
        k(   20) = (   0.0000000  -0.5303301   0.5303301), wk =   0.0468750
        k(   21) = (  -0.7071068   0.0000000   0.0000000), wk =   0.0117188
        k(   22) = (   0.3535534   0.1767767   0.0000000), wk =   0.0937500
        k(   23) = (  -0.2651650  -0.4419417   0.6187184), wk =   0.1875000
        k(   24) = (  -0.1767767  -0.3535534   0.5303301), wk =   0.0937500
        k(   25) = (  -0.1767767  -0.5303301   0.7071068), wk =   0.0937500
        k(   26) = (  -0.0883883  -0.4419417   0.6187184), wk =   0.1875000
        k(   27) = (   0.0000000  -0.3535534   0.5303301), wk =   0.0937500
        k(   28) = (  -0.7071068   0.1767767   0.0000000), wk =   0.0468750
        k(   29) = (  -0.7071068   0.3535534   0.0000000), wk =   0.0234375

     Dense  grid:    35149 G-vectors     FFT dimensions: (  45,  45,  45)

     Largest allocated arrays     est. size (Mb)     dimensions
        Kohn-Sham Wavefunctions         0.03 Mb     (     564,    4)
        NL pseudopotentials             0.09 Mb     (     564,   10)
        Each V/rho on FFT grid          0.19 Mb     (   12150)
        Each G-vector array             0.03 Mb     (    4396)
        G-vector shells                 0.00 Mb     (     344)
     Largest temporary arrays     est. size (Mb)     dimensions
        Each subspace H/S matrix        0.00 Mb     (       4,    4)
        Each <psi_i|beta_j> matrix      0.00 Mb     (      10,    4)
        Arrays for rho mixing           1.48 Mb     (   12150,    8)

     Initial potential from superposition of free atoms

     starting charge    7.99889, renormalised to    8.00000
     Starting wfc are    8 randomized atomic wfcs

     total cpu time spent up to now is        0.4 secs

     per-process dynamical memory:    12.1 Mb

     Self-consistent Calculation

     iteration #  1     ecut=    80.00 Ry     beta=0.70
     CG style diagonalization
     ethr =  1.00E-02,  avg # of iterations =  2.5

     Threshold (ethr) on eigenvalues was too large:
     Diagonalizing with lowered threshold

     CG style diagonalization
     ethr =  3.82E-04,  avg # of iterations =  2.9

     total cpu time spent up to now is        1.1 secs

     total energy              =     -15.69127000 Ry
     Harris-Foulkes estimate   =     -15.69572382 Ry
     estimated scf accuracy    <       0.03428732 Ry

     iteration #  2     ecut=    80.00 Ry     beta=0.70
     CG style diagonalization
     ethr =  4.29E-04,  avg # of iterations =  3.0

     total cpu time spent up to now is        1.6 secs

     total energy              =     -15.69184635 Ry
     Harris-Foulkes estimate   =     -15.69198026 Ry
     estimated scf accuracy    <       0.00251958 Ry

     iteration #  3     ecut=    80.00 Ry     beta=0.70
     CG style diagonalization
     ethr =  3.15E-05,  avg # of iterations =  3.2

     total cpu time spent up to now is        2.0 secs

     total energy              =     -15.69205104 Ry
     Harris-Foulkes estimate   =     -15.69205638 Ry
     estimated scf accuracy    <       0.00002183 Ry

     iteration #  4     ecut=    80.00 Ry     beta=0.70
     CG style diagonalization
     ethr =  2.73E-07,  avg # of iterations =  5.5

     total cpu time spent up to now is        2.7 secs

     total energy              =     -15.69210935 Ry
     Harris-Foulkes estimate   =     -15.69211115 Ry
     estimated scf accuracy    <       0.00000401 Ry

     iteration #  5     ecut=    80.00 Ry     beta=0.70
     CG style diagonalization
     ethr =  5.01E-08,  avg # of iterations =  3.9

     total cpu time spent up to now is        3.2 secs

     total energy              =     -15.69210993 Ry
     Harris-Foulkes estimate   =     -15.69210997 Ry
     estimated scf accuracy    <       0.00000016 Ry

     iteration #  6     ecut=    80.00 Ry     beta=0.70
     CG style diagonalization
     ethr =  2.03E-09,  avg # of iterations =  4.5

     total cpu time spent up to now is        3.8 secs

     total energy              =     -15.69210999 Ry
     Harris-Foulkes estimate   =     -15.69211002 Ry
     estimated scf accuracy    <       0.00000007 Ry

     iteration #  7     ecut=    80.00 Ry     beta=0.70
     CG style diagonalization
     ethr =  8.46E-10,  avg # of iterations =  3.4

     total cpu time spent up to now is        4.3 secs

     total energy              =     -15.69211000 Ry
     Harris-Foulkes estimate   =     -15.69211000 Ry
     estimated scf accuracy    <          6.2E-11 Ry

     iteration #  8     ecut=    80.00 Ry     beta=0.70
     CG style diagonalization
     ethr =  7.74E-13,  avg # of iterations =  6.7

     total cpu time spent up to now is        5.1 secs

     total energy              =     -15.69211000 Ry
     Harris-Foulkes estimate   =     -15.69211000 Ry
     estimated scf accuracy    <          5.4E-10 Ry

     iteration #  9     ecut=    80.00 Ry     beta=0.70
     CG style diagonalization
     ethr =  7.74E-13,  avg # of iterations =  4.0

     total cpu time spent up to now is        5.7 secs

     total energy              =     -15.69211000 Ry
     Harris-Foulkes estimate   =     -15.69211000 Ry
     estimated scf accuracy    <          5.9E-12 Ry

     iteration # 10     ecut=    80.00 Ry     beta=0.70
     CG style diagonalization
     ethr =  1.00E-13,  avg # of iterations =  4.5

     total cpu time spent up to now is        6.3 secs

     End of self-consistent calculation

          k = 0.0000 0.0000 0.0000 (  4477 PWs)   bands (ev):

    -6.6179   3.5003   3.5003   3.5003

          k = 0.0884 0.0884-0.0884 (  4417 PWs)   bands (ev):

    -6.4621   1.7856   3.2889   3.2889

          k = 0.1768 0.1768-0.1768 (  4405 PWs)   bands (ev):

    -6.0126  -0.0687   2.9208   2.9208

          k = 0.2652 0.2652-0.2652 (  4416 PWs)   bands (ev):

    -5.3635  -1.6046   2.6521   2.6521

          k =-0.3536-0.3536 0.3536 (  4398 PWs)   bands (ev):

    -4.9424  -2.3272   2.5579   2.5579

          k = 0.1768 0.0000 0.0000 (  4420 PWs)   bands (ev):

    -6.4092   1.7335   2.9320   2.9320

          k = 0.2652 0.0884-0.0884 (  4415 PWs)   bands (ev):

    -6.0534   0.3267   2.4979   2.5389

          k = 0.3536 0.1768-0.1768 (  4414 PWs)   bands (ev):

    -5.4500  -1.2023   2.0052   2.3143

          k =-0.2652-0.4419 0.4419 (  4409 PWs)   bands (ev):

    -4.8593  -2.2455   1.6630   2.3114

          k =-0.1768-0.3536 0.3536 (  4394 PWs)   bands (ev):

    -5.0199  -1.9898   1.5596   2.5211

          k =-0.0884-0.2652 0.2652 (  4406 PWs)   bands (ev):

    -5.6753  -0.7163   1.7488   2.8861

          k = 0.0000-0.1768 0.1768 (  4415 PWs)   bands (ev):

    -6.2065   0.7619   2.3457   3.2511

          k = 0.3536 0.0000 0.0000 (  4432 PWs)   bands (ev):

    -5.7919  -0.1342   2.1116   2.1116

          k = 0.4419 0.0884-0.0884 (  4411 PWs)   bands (ev):

    -5.2578  -1.2093   1.5259   1.8593

          k =-0.1768-0.5303 0.5303 (  4404 PWs)   bands (ev):

    -4.5951  -2.2371   0.8730   1.8488

          k =-0.0884-0.4419 0.4419 (  4399 PWs)   bands (ev):

    -4.4706  -2.3997   0.5541   2.0784

          k = 0.0000-0.3536 0.3536 (  4403 PWs)   bands (ev):

    -5.0889  -1.5555   0.7767   2.4860

          k = 0.5303 0.0000 0.0000 (  4380 PWs)   bands (ev):

    -4.7943  -1.8872   1.5543   1.5543

          k =-0.0884-0.6187 0.6187 (  4393 PWs)   bands (ev):

    -4.1276  -2.7239   1.0048   1.4908

          k = 0.0000-0.5303 0.5303 (  4392 PWs)   bands (ev):

    -3.8621  -2.9860   0.4250   1.6812

          k =-0.7071 0.0000 0.0000 (  4360 PWs)   bands (ev):

    -3.4678  -3.4678   1.3617   1.3617

          k = 0.3536 0.1768 0.0000 (  4423 PWs)   bands (ev):

    -5.6103  -0.6353   1.5323   2.4130

          k =-0.2652-0.4419 0.6187 (  4403 PWs)   bands (ev):

    -4.9614  -1.7813   1.0097   2.0739

          k =-0.1768-0.3536 0.5303 (  4392 PWs)   bands (ev):

    -4.5221  -2.4225   0.8646   1.9203

          k =-0.1768-0.5303 0.7071 (  4402 PWs)   bands (ev):

    -4.6602  -2.0526   1.0483   1.4984

          k =-0.0884-0.4419 0.6187 (  4393 PWs)   bands (ev):

    -4.0429  -2.7760   0.5706   1.3587

          k = 0.0000-0.3536 0.5303 (  4405 PWs)   bands (ev):

    -4.3059  -2.4839   0.4569   1.6223

          k =-0.7071 0.1768 0.0000 (  4372 PWs)   bands (ev):

    -3.4341  -3.4341   1.0219   1.0219

          k =-0.7071 0.3536 0.0000 (  4388 PWs)   bands (ev):

    -3.3988  -3.3988   0.7502   0.7502

     highest occupied level (ev):     3.5003

!    total energy              =     -15.69211000 Ry
     Harris-Foulkes estimate   =     -15.69211000 Ry
     estimated scf accuracy    <          4.7E-13 Ry

     The total energy is the sum of the following terms:

     one-electron contribution =       2.66217273 Ry
     hartree contribution      =       1.37181328 Ry
     xc contribution           =      -4.52305200 Ry
     ewald contribution        =     -15.20304401 Ry

     convergence has been achieved in  10 iterations

     Writing output data file si.save

     init_run     :      0.33s CPU      0.34s WALL (       1 calls)
     electrons    :      5.62s CPU      5.90s WALL (       1 calls)

     Called by init_run:
     wfcinit      :      0.24s CPU      0.24s WALL (       1 calls)
     potinit      :      0.03s CPU      0.03s WALL (       1 calls)

     Called by electrons:
     c_bands      :      4.79s CPU      5.05s WALL (      11 calls)
     sum_band     :      0.61s CPU      0.63s WALL (      11 calls)
     v_of_rho     :      0.18s CPU      0.18s WALL (      11 calls)
     mix_rho      :      0.04s CPU      0.04s WALL (      11 calls)

     Called by c_bands:
     init_us_2    :      0.16s CPU      0.15s WALL (     667 calls)
     ccgdiagg     :      3.79s CPU      4.03s WALL (     319 calls)
     wfcrot       :      1.11s CPU      1.14s WALL (     290 calls)

     Called by sum_band:

     Called by *cgdiagg:
     h_psi        :      4.39s CPU      4.67s WALL (    4358 calls)
     cdiaghg      :      0.01s CPU      0.02s WALL (     290 calls)

     Called by h_psi:
     add_vuspsi   :      0.08s CPU      0.08s WALL (    4358 calls)
     h_1psi       :      3.34s CPU      3.60s WALL (    4068 calls)

     General routines
     calbec       :      0.15s CPU      0.19s WALL (    8426 calls)
     fft          :      0.08s CPU      0.08s WALL (     122 calls)
     fftw         :      4.55s CPU      4.58s WALL (   11964 calls)
     davcio       :      0.00s CPU      0.00s WALL (      29 calls)

     Parallel routines
     fft_scatter  :      0.63s CPU      0.79s WALL (   12086 calls)

     PWSCF        :     6.09s CPU         6.39s WALL


   This run was terminated on:   8:52: 1   5Apr2016            

=------------------------------------------------------------------------------=
   JOB DONE.
=------------------------------------------------------------------------------=
