
     Program PWSCF v.5.3.0 (svn rev. 11974) starts on  5Apr2016 at  8:56:11 

     This program is part of the open-source Quantum ESPRESSO suite
     for quantum simulation of materials; please cite
         "P. Giannozzi et al., J. Phys.:Condens. Matter 21 395502 (2009);
          URL http://www.quantum-espresso.org", 
     in publications or presentations arising from this work. More details at
     http://www.quantum-espresso.org/quote

     Parallel version (MPI), running on     8 processors
     R & G space division:  proc/nbgrp/npool/nimage =       8
     Waiting for input...
     Reading input from standard input

     Current dimensions of program PWSCF are:
     Max number of different atomic species (ntypx) = 10
     Max number of k-points (npk) =  40000
     Max angular momentum in pseudopotentials (lmaxx) =  3

     Subspace diagonalization in iterative solution of the eigenvalue problem:
     a serial algorithm will be used


     Parallelization info
     --------------------
     sticks:   dense  smooth     PW     G-vecs:    dense   smooth      PW
     Min         263     263     74                 8094     8094    1229
     Max         264     264     75                 8099     8099    1233
     Sum        2107    2107    595                64767    64767    9841



     bravais-lattice index     =            0
     lattice parameter (alat)  =       8.0174  a.u.
     unit-cell volume          =     364.4101 (a.u.)^3
     number of atoms/cell      =            2
     number of atomic types    =            1
     number of electrons       =         8.00
     number of Kohn-Sham states=            4
     kinetic-energy cutoff     =     120.0000  Ry
     charge density cutoff     =     480.0000  Ry
     convergence threshold     =      1.0E-12
     mixing beta               =       0.7000
     number of iterations used =            8  plain     mixing
     Exchange-correlation      =  SLA  PW   PBE  PBE ( 1  4  3  4 0 0)

     celldm(1)=   8.017429  celldm(2)=   0.000000  celldm(3)=   0.000000
     celldm(4)=   0.000000  celldm(5)=   0.000000  celldm(6)=   0.000000

     crystal axes: (cart. coord. in units of alat)
               a(1) = (   0.000000   0.707107   0.707107 )  
               a(2) = (   0.707107   0.000000   0.707107 )  
               a(3) = (   0.707107   0.707107   0.000000 )  

     reciprocal axes: (cart. coord. in units 2 pi/alat)
               b(1) = ( -0.707107  0.707107  0.707107 )  
               b(2) = (  0.707107 -0.707107  0.707107 )  
               b(3) = (  0.707107  0.707107 -0.707107 )  


     PseudoPot. # 1 for Si read from file:
     /home/junhao/espresso/espresso-5.3.0/pseudo/Si.pbe-rrkj.UPF
     MD5 check sum: cf7ab5690cd9a85b22c4813f7e365554
     Pseudo is Norm-conserving, Zval =  4.0
     Generated by new atomic code, or converted to UPF format
     Using radial grid of  883 points,  3 beta functions with: 
                l(1) =   0
                l(2) =   0
                l(3) =   1

     atomic species   valence    mass     pseudopotential
        Si             4.00    28.08550     Si( 1.00)

     48 Sym. Ops., with inversion, found (24 have fractional translation)



   Cartesian axes

     site n.     atom                  positions (alat units)
         1           Si  tau(   1) = (   0.0000000   0.0000000   0.0000000  )
         2           Si  tau(   2) = (   0.3535534   0.3535534   0.3535534  )

     number of k points=    47
                       cart. coord. in units 2pi/alat
        k(    1) = (   0.0000000   0.0000000   0.0000000), wk =   0.0020000
        k(    2) = (   0.0707107   0.0707107  -0.0707107), wk =   0.0160000
        k(    3) = (   0.1414214   0.1414214  -0.1414214), wk =   0.0160000
        k(    4) = (   0.2121320   0.2121320  -0.2121320), wk =   0.0160000
        k(    5) = (   0.2828427   0.2828427  -0.2828427), wk =   0.0160000
        k(    6) = (  -0.3535534  -0.3535534   0.3535534), wk =   0.0080000
        k(    7) = (   0.1414214   0.0000000   0.0000000), wk =   0.0120000
        k(    8) = (   0.2121320   0.0707107  -0.0707107), wk =   0.0480000
        k(    9) = (   0.2828427   0.1414214  -0.1414214), wk =   0.0480000
        k(   10) = (   0.3535534   0.2121320  -0.2121320), wk =   0.0480000
        k(   11) = (  -0.2828427  -0.4242641   0.4242641), wk =   0.0480000
        k(   12) = (  -0.2121320  -0.3535534   0.3535534), wk =   0.0480000
        k(   13) = (  -0.1414214  -0.2828427   0.2828427), wk =   0.0480000
        k(   14) = (  -0.0707107  -0.2121320   0.2121320), wk =   0.0480000
        k(   15) = (   0.0000000  -0.1414214   0.1414214), wk =   0.0240000
        k(   16) = (   0.2828427   0.0000000   0.0000000), wk =   0.0120000
        k(   17) = (   0.3535534   0.0707107  -0.0707107), wk =   0.0480000
        k(   18) = (   0.4242641   0.1414214  -0.1414214), wk =   0.0480000
        k(   19) = (  -0.2121320  -0.4949747   0.4949747), wk =   0.0480000
        k(   20) = (  -0.1414214  -0.4242641   0.4242641), wk =   0.0480000
        k(   21) = (  -0.0707107  -0.3535534   0.3535534), wk =   0.0480000
        k(   22) = (   0.0000000  -0.2828427   0.2828427), wk =   0.0240000
        k(   23) = (   0.4242641   0.0000000   0.0000000), wk =   0.0120000
        k(   24) = (   0.4949747   0.0707107  -0.0707107), wk =   0.0480000
        k(   25) = (  -0.1414214  -0.5656854   0.5656854), wk =   0.0480000
        k(   26) = (  -0.0707107  -0.4949747   0.4949747), wk =   0.0480000
        k(   27) = (  -0.0000000  -0.4242641   0.4242641), wk =   0.0240000
        k(   28) = (   0.5656854   0.0000000   0.0000000), wk =   0.0120000
        k(   29) = (  -0.0707107  -0.6363961   0.6363961), wk =   0.0480000
        k(   30) = (   0.0000000  -0.5656854   0.5656854), wk =   0.0240000
        k(   31) = (  -0.7071068   0.0000000   0.0000000), wk =   0.0060000
        k(   32) = (   0.2828427   0.1414214   0.0000000), wk =   0.0480000
        k(   33) = (   0.3535534   0.2121320  -0.0707107), wk =   0.0960000
        k(   34) = (  -0.2828427  -0.4242641   0.5656854), wk =   0.0960000
        k(   35) = (  -0.2121320  -0.3535534   0.4949747), wk =   0.0480000
        k(   36) = (   0.4242641   0.1414214  -0.0000000), wk =   0.0480000
        k(   37) = (  -0.2121320  -0.4949747   0.6363961), wk =   0.0960000
        k(   38) = (  -0.1414214  -0.4242641   0.5656854), wk =   0.0960000
        k(   39) = (  -0.0707107  -0.3535534   0.4949747), wk =   0.0960000
        k(   40) = (   0.0000000  -0.2828427   0.4242641), wk =   0.0480000
        k(   41) = (  -0.1414214  -0.5656854   0.7071068), wk =   0.0480000
        k(   42) = (  -0.0707107  -0.4949747   0.6363961), wk =   0.0960000
        k(   43) = (  -0.0000000  -0.4242641   0.5656854), wk =   0.0480000
        k(   44) = (  -0.7071068   0.1414214   0.0000000), wk =   0.0240000
        k(   45) = (  -0.1414214  -0.4242641   0.7071068), wk =   0.0480000
        k(   46) = (  -0.0707107  -0.3535534   0.6363961), wk =   0.0480000
        k(   47) = (  -0.7071068   0.2828427   0.0000000), wk =   0.0240000

     Dense  grid:    64767 G-vectors     FFT dimensions: (  60,  60,  60)

     Largest allocated arrays     est. size (Mb)     dimensions
        Kohn-Sham Wavefunctions         0.06 Mb     (    1024,    4)
        NL pseudopotentials             0.16 Mb     (    1024,   10)
        Each V/rho on FFT grid          0.44 Mb     (   28800)
        Each G-vector array             0.06 Mb     (    8099)
        G-vector shells                 0.00 Mb     (     519)
     Largest temporary arrays     est. size (Mb)     dimensions
        Each subspace H/S matrix        0.00 Mb     (       4,    4)
        Each <psi_i|beta_j> matrix      0.00 Mb     (      10,    4)
        Arrays for rho mixing           3.52 Mb     (   28800,    8)

     Initial potential from superposition of free atoms

     starting charge    7.99889, renormalised to    8.00000
     Starting wfc are    8 randomized atomic wfcs

     total cpu time spent up to now is        1.0 secs

     per-process dynamical memory:    16.4 Mb

     Self-consistent Calculation

     iteration #  1     ecut=   120.00 Ry     beta=0.70
     CG style diagonalization
     ethr =  1.00E-02,  avg # of iterations =  2.6

     Threshold (ethr) on eigenvalues was too large:
     Diagonalizing with lowered threshold

     CG style diagonalization
     ethr =  3.83E-04,  avg # of iterations =  2.9

     total cpu time spent up to now is        3.8 secs

     total energy              =     -15.69153872 Ry
     Harris-Foulkes estimate   =     -15.69597694 Ry
     estimated scf accuracy    <       0.03411997 Ry

     iteration #  2     ecut=   120.00 Ry     beta=0.70
     CG style diagonalization
     ethr =  4.26E-04,  avg # of iterations =  3.0

     total cpu time spent up to now is        5.2 secs

     total energy              =     -15.69213181 Ry
     Harris-Foulkes estimate   =     -15.69226210 Ry
     estimated scf accuracy    <       0.00249438 Ry

     iteration #  3     ecut=   120.00 Ry     beta=0.70
     CG style diagonalization
     ethr =  3.12E-05,  avg # of iterations =  3.2

     total cpu time spent up to now is        6.8 secs

     total energy              =     -15.69234151 Ry
     Harris-Foulkes estimate   =     -15.69234675 Ry
     estimated scf accuracy    <       0.00002229 Ry

     iteration #  4     ecut=   120.00 Ry     beta=0.70
     CG style diagonalization
     ethr =  2.79E-07,  avg # of iterations =  5.5

     total cpu time spent up to now is        9.3 secs

     total energy              =     -15.69239782 Ry
     Harris-Foulkes estimate   =     -15.69239938 Ry
     estimated scf accuracy    <       0.00000349 Ry

     iteration #  5     ecut=   120.00 Ry     beta=0.70
     CG style diagonalization
     ethr =  4.36E-08,  avg # of iterations =  3.9

     total cpu time spent up to now is       11.1 secs

     total energy              =     -15.69239836 Ry
     Harris-Foulkes estimate   =     -15.69239840 Ry
     estimated scf accuracy    <       0.00000016 Ry

     iteration #  6     ecut=   120.00 Ry     beta=0.70
     CG style diagonalization
     ethr =  1.97E-09,  avg # of iterations =  4.5

     total cpu time spent up to now is       13.2 secs

     total energy              =     -15.69239841 Ry
     Harris-Foulkes estimate   =     -15.69239844 Ry
     estimated scf accuracy    <       0.00000009 Ry

     iteration #  7     ecut=   120.00 Ry     beta=0.70
     CG style diagonalization
     ethr =  1.10E-09,  avg # of iterations =  3.3

     total cpu time spent up to now is       14.8 secs

     total energy              =     -15.69239841 Ry
     Harris-Foulkes estimate   =     -15.69239841 Ry
     estimated scf accuracy    <          4.7E-11 Ry

     iteration #  8     ecut=   120.00 Ry     beta=0.70
     CG style diagonalization
     ethr =  5.88E-13,  avg # of iterations =  6.9

     total cpu time spent up to now is       17.8 secs

     total energy              =     -15.69239842 Ry
     Harris-Foulkes estimate   =     -15.69239842 Ry
     estimated scf accuracy    <          3.9E-11 Ry

     iteration #  9     ecut=   120.00 Ry     beta=0.70
     CG style diagonalization
     ethr =  4.86E-13,  avg # of iterations =  3.0

     total cpu time spent up to now is       19.3 secs

     End of self-consistent calculation

          k = 0.0000 0.0000 0.0000 (  7991 PWs)   bands (ev):

    -6.6191   3.4990   3.4990   3.4990

          k = 0.0707 0.0707-0.0707 (  8039 PWs)   bands (ev):

    -6.5191   2.1703   3.3553   3.3553

          k = 0.1414 0.1414-0.1414 (  8075 PWs)   bands (ev):

    -6.2257   0.6481   3.0633   3.0633

          k = 0.2121 0.2121-0.2121 (  8063 PWs)   bands (ev):

    -5.7671  -0.7388   2.7936   2.7936

          k = 0.2828 0.2828-0.2828 (  8072 PWs)   bands (ev):

    -5.2363  -1.8425   2.6171   2.6171

          k =-0.3536-0.3536 0.3536 (  8086 PWs)   bands (ev):

    -4.9437  -2.3284   2.5567   2.5567

          k = 0.1414 0.0000 0.0000 (  8055 PWs)   bands (ev):

    -6.4854   2.1156   3.0988   3.0988

          k = 0.2121 0.0707-0.0707 (  8065 PWs)   bands (ev):

    -6.2550   0.9638   2.7711   2.8074

          k = 0.2828 0.1414-0.1414 (  8085 PWs)   bands (ev):

    -5.8465  -0.3656   2.4395   2.5144

          k = 0.3536 0.2121-0.2121 (  8064 PWs)   bands (ev):

    -5.3203  -1.5390   2.1082   2.3832

          k =-0.2828-0.4243 0.4243 (  8097 PWs)   bands (ev):

    -4.8908  -2.2717   1.8900   2.3909

          k =-0.2121-0.3536 0.3536 (  8094 PWs)   bands (ev):

    -4.9982  -2.1018   1.8157   2.5311

          k =-0.1414-0.2828 0.2828 (  8082 PWs)   bands (ev):

    -5.5036  -1.1744   1.9038   2.7806

          k =-0.0707-0.2121 0.2121 (  8089 PWs)   bands (ev):

    -6.0020   0.0615   2.1759   3.0894

          k = 0.0000-0.1414 0.1414 (  8066 PWs)   bands (ev):

    -6.3540   1.3163   2.6877   3.3435

          k = 0.2828 0.0000 0.0000 (  8064 PWs)   bands (ev):

    -6.0878   0.5999   2.4187   2.4187

          k = 0.3536 0.0707-0.0707 (  8084 PWs)   bands (ev):

    -5.7350  -0.3321   1.9984   2.1467

          k = 0.4243 0.1414-0.1414 (  8068 PWs)   bands (ev):

    -5.2352  -1.3693   1.4889   2.0125

          k =-0.2121-0.4950 0.4950 (  8085 PWs)   bands (ev):

    -4.7255  -2.1986   1.0895   2.0327

          k =-0.1414-0.4243 0.4243 (  8085 PWs)   bands (ev):

    -4.6308  -2.3322   0.8838   2.2017

          k =-0.0707-0.3536 0.3536 (  8095 PWs)   bands (ev):

    -5.0775  -1.6530   0.9284   2.4913

          k = 0.0000-0.2828 0.2828 (  8102 PWs)   bands (ev):

    -5.6011  -0.7299   1.3251   2.8350

          k = 0.4243 0.0000 0.0000 (  8104 PWs)   bands (ev):

    -5.4374  -0.8529   1.8472   1.8472

          k = 0.4950 0.0707-0.0707 (  8089 PWs)   bands (ev):

    -4.9767  -1.6266   1.4054   1.6844

          k =-0.1414-0.5657 0.5657 (  8083 PWs)   bands (ev):

    -4.4343  -2.3709   0.8208   1.6818

          k =-0.0707-0.4950 0.4950 (  8096 PWs)   bands (ev):

    -4.1669  -2.6858   0.4325   1.8383

          k =-0.0000-0.4243 0.4243 (  8086 PWs)   bands (ev):

    -4.5498  -2.2404   0.4213   2.1295

          k = 0.5657 0.0000 0.0000 (  8088 PWs)   bands (ev):

    -4.5545  -2.2209   1.4842   1.4842

          k =-0.0707-0.6364 0.6364 (  8082 PWs)   bands (ev):

    -4.0108  -2.8687   1.1014   1.4437

          k = 0.0000-0.5657 0.5657 (  8098 PWs)   bands (ev):

    -3.7084  -3.1604   0.5866   1.5677

          k =-0.7071 0.0000 0.0000 (  8144 PWs)   bands (ev):

    -3.4690  -3.4690   1.3606   1.3606

          k = 0.2828 0.1414 0.0000 (  8075 PWs)   bands (ev):

    -5.9643   0.1297   2.0018   2.7321

          k = 0.3536 0.2121-0.0707 (  8090 PWs)   bands (ev):

    -5.5083  -0.9295   1.5003   2.4688

          k =-0.2828-0.4243 0.5657 (  8085 PWs)   bands (ev):

    -4.9742  -1.9046   1.2516   2.2283

          k =-0.2121-0.3536 0.4950 (  8088 PWs)   bands (ev):

    -4.6727  -2.3637   1.1777   2.1360

          k = 0.4243 0.1414-0.0000 (  8085 PWs)   bands (ev):

    -5.3301  -1.0863   1.4502   1.9550

          k =-0.2121-0.4950 0.6364 (  8106 PWs)   bands (ev):

    -4.8022  -1.9128   0.9747   1.7360

          k =-0.1414-0.4243 0.5657 (  8110 PWs)   bands (ev):

    -4.3581  -2.5062   0.6579   1.6973

          k =-0.0707-0.3536 0.4950 (  8101 PWs)   bands (ev):

    -4.4986  -2.3262   0.5736   1.8633

          k = 0.0000-0.2828 0.4243 (  8087 PWs)   bands (ev):

    -5.0207  -1.6251   0.8238   2.1699

          k =-0.1414-0.5657 0.7071 (  8089 PWs)   bands (ev):

    -4.4770  -2.2942   1.1418   1.3905

          k =-0.0707-0.4950 0.6364 (  8103 PWs)   bands (ev):

    -3.9491  -2.8853   0.6796   1.3238

          k =-0.0000-0.4243 0.5657 (  8093 PWs)   bands (ev):

    -3.9871  -2.8337   0.3956   1.5171

          k =-0.7071 0.1414 0.0000 (  8100 PWs)   bands (ev):

    -3.4459  -3.4459   1.1163   1.1163

          k =-0.1414-0.4243 0.7071 (  8108 PWs)   bands (ev):

    -4.2669  -2.5146   0.6269   1.3502

          k =-0.0707-0.3536 0.6364 (  8098 PWs)   bands (ev):

    -3.9071  -2.9003   0.5239   1.1762

          k =-0.7071 0.2828 0.0000 (  8096 PWs)   bands (ev):

    -3.4069  -3.4069   0.7974   0.7974

     highest occupied level (ev):     3.4990

!    total energy              =     -15.69239842 Ry
     Harris-Foulkes estimate   =     -15.69239842 Ry
     estimated scf accuracy    <          7.6E-13 Ry

     The total energy is the sum of the following terms:

     one-electron contribution =       2.66230021 Ry
     hartree contribution      =       1.37101670 Ry
     xc contribution           =      -4.52267132 Ry
     ewald contribution        =     -15.20304401 Ry

     convergence has been achieved in   9 iterations

     Writing output data file si.save

     init_run     :      0.94s CPU      0.98s WALL (       1 calls)
     electrons    :     17.63s CPU     18.30s WALL (       1 calls)

     Called by init_run:
     wfcinit      :      0.76s CPU      0.78s WALL (       1 calls)
     potinit      :      0.06s CPU      0.06s WALL (       1 calls)

     Called by electrons:
     c_bands      :     15.06s CPU     15.70s WALL (      10 calls)
     sum_band     :      2.10s CPU      2.13s WALL (      10 calls)
     v_of_rho     :      0.41s CPU      0.42s WALL (      10 calls)
     mix_rho      :      0.07s CPU      0.07s WALL (      10 calls)

     Called by c_bands:
     init_us_2    :      0.47s CPU      0.45s WALL (     987 calls)
     ccgdiagg     :     11.93s CPU     12.46s WALL (     470 calls)
     wfcrot       :      3.50s CPU      3.62s WALL (     423 calls)

     Called by sum_band:

     Called by *cgdiagg:
     h_psi        :     14.26s CPU     14.86s WALL (    6203 calls)
     cdiaghg      :      0.02s CPU      0.03s WALL (     423 calls)

     Called by h_psi:
     add_vuspsi   :      0.16s CPU      0.19s WALL (    6203 calls)
     h_1psi       :     10.91s CPU     11.40s WALL (    5780 calls)

     General routines
     calbec       :      0.78s CPU      0.89s WALL (   11983 calls)
     fft          :      0.16s CPU      0.16s WALL (     111 calls)
     fftw         :     13.57s CPU     13.71s WALL (   17200 calls)
     davcio       :      0.00s CPU      0.00s WALL (      47 calls)

     Parallel routines
     fft_scatter  :      1.76s CPU      2.17s WALL (   17311 calls)

     PWSCF        :    18.78s CPU        19.49s WALL


   This run was terminated on:   8:56:31   5Apr2016            

=------------------------------------------------------------------------------=
   JOB DONE.
=------------------------------------------------------------------------------=
