
     Program PWSCF v.5.3.0 (svn rev. 11974) starts on  5Apr2016 at  8:56:49 

     This program is part of the open-source Quantum ESPRESSO suite
     for quantum simulation of materials; please cite
         "P. Giannozzi et al., J. Phys.:Condens. Matter 21 395502 (2009);
          URL http://www.quantum-espresso.org", 
     in publications or presentations arising from this work. More details at
     http://www.quantum-espresso.org/quote

     Parallel version (MPI), running on     8 processors
     R & G space division:  proc/nbgrp/npool/nimage =       8
     Waiting for input...
     Reading input from standard input

     Current dimensions of program PWSCF are:
     Max number of different atomic species (ntypx) = 10
     Max number of k-points (npk) =  40000
     Max angular momentum in pseudopotentials (lmaxx) =  3

     Subspace diagonalization in iterative solution of the eigenvalue problem:
     a serial algorithm will be used


     Parallelization info
     --------------------
     sticks:   dense  smooth     PW     G-vecs:    dense   smooth      PW
     Min         263     263     74                 8094     8094    1229
     Max         264     264     75                 8099     8099    1233
     Sum        2107    2107    595                64767    64767    9841



     bravais-lattice index     =            0
     lattice parameter (alat)  =       8.0174  a.u.
     unit-cell volume          =     364.4101 (a.u.)^3
     number of atoms/cell      =            2
     number of atomic types    =            1
     number of electrons       =         8.00
     number of Kohn-Sham states=            4
     kinetic-energy cutoff     =     120.0000  Ry
     charge density cutoff     =     480.0000  Ry
     convergence threshold     =      1.0E-12
     mixing beta               =       0.7000
     number of iterations used =            8  plain     mixing
     Exchange-correlation      =  SLA  PW   PBE  PBE ( 1  4  3  4 0 0)

     celldm(1)=   8.017429  celldm(2)=   0.000000  celldm(3)=   0.000000
     celldm(4)=   0.000000  celldm(5)=   0.000000  celldm(6)=   0.000000

     crystal axes: (cart. coord. in units of alat)
               a(1) = (   0.000000   0.707107   0.707107 )  
               a(2) = (   0.707107   0.000000   0.707107 )  
               a(3) = (   0.707107   0.707107   0.000000 )  

     reciprocal axes: (cart. coord. in units 2 pi/alat)
               b(1) = ( -0.707107  0.707107  0.707107 )  
               b(2) = (  0.707107 -0.707107  0.707107 )  
               b(3) = (  0.707107  0.707107 -0.707107 )  


     PseudoPot. # 1 for Si read from file:
     /home/junhao/espresso/espresso-5.3.0/pseudo/Si.pbe-rrkj.UPF
     MD5 check sum: cf7ab5690cd9a85b22c4813f7e365554
     Pseudo is Norm-conserving, Zval =  4.0
     Generated by new atomic code, or converted to UPF format
     Using radial grid of  883 points,  3 beta functions with: 
                l(1) =   0
                l(2) =   0
                l(3) =   1

     atomic species   valence    mass     pseudopotential
        Si             4.00    28.08550     Si( 1.00)

     48 Sym. Ops., with inversion, found (24 have fractional translation)



   Cartesian axes

     site n.     atom                  positions (alat units)
         1           Si  tau(   1) = (   0.0000000   0.0000000   0.0000000  )
         2           Si  tau(   2) = (   0.3535534   0.3535534   0.3535534  )

     number of k points=    72
                       cart. coord. in units 2pi/alat
        k(    1) = (   0.0000000   0.0000000   0.0000000), wk =   0.0011574
        k(    2) = (   0.0589256   0.0589256  -0.0589256), wk =   0.0092593
        k(    3) = (   0.1178511   0.1178511  -0.1178511), wk =   0.0092593
        k(    4) = (   0.1767767   0.1767767  -0.1767767), wk =   0.0092593
        k(    5) = (   0.2357023   0.2357023  -0.2357023), wk =   0.0092593
        k(    6) = (   0.2946278   0.2946278  -0.2946278), wk =   0.0092593
        k(    7) = (  -0.3535534  -0.3535534   0.3535534), wk =   0.0046296
        k(    8) = (   0.1178511   0.0000000   0.0000000), wk =   0.0069444
        k(    9) = (   0.1767767   0.0589256  -0.0589256), wk =   0.0277778
        k(   10) = (   0.2357023   0.1178511  -0.1178511), wk =   0.0277778
        k(   11) = (   0.2946278   0.1767767  -0.1767767), wk =   0.0277778
        k(   12) = (   0.3535534   0.2357023  -0.2357023), wk =   0.0277778
        k(   13) = (  -0.2946278  -0.4124790   0.4124790), wk =   0.0277778
        k(   14) = (  -0.2357023  -0.3535534   0.3535534), wk =   0.0277778
        k(   15) = (  -0.1767767  -0.2946278   0.2946278), wk =   0.0277778
        k(   16) = (  -0.1178511  -0.2357023   0.2357023), wk =   0.0277778
        k(   17) = (  -0.0589256  -0.1767767   0.1767767), wk =   0.0277778
        k(   18) = (  -0.0000000  -0.1178511   0.1178511), wk =   0.0138889
        k(   19) = (   0.2357023   0.0000000   0.0000000), wk =   0.0069444
        k(   20) = (   0.2946278   0.0589256  -0.0589256), wk =   0.0277778
        k(   21) = (   0.3535534   0.1178511  -0.1178511), wk =   0.0277778
        k(   22) = (   0.4124790   0.1767767  -0.1767767), wk =   0.0277778
        k(   23) = (  -0.2357023  -0.4714045   0.4714045), wk =   0.0277778
        k(   24) = (  -0.1767767  -0.4124790   0.4124790), wk =   0.0277778
        k(   25) = (  -0.1178511  -0.3535534   0.3535534), wk =   0.0277778
        k(   26) = (  -0.0589256  -0.2946278   0.2946278), wk =   0.0277778
        k(   27) = (   0.0000000  -0.2357023   0.2357023), wk =   0.0138889
        k(   28) = (   0.3535534   0.0000000   0.0000000), wk =   0.0069444
        k(   29) = (   0.4124790   0.0589256  -0.0589256), wk =   0.0277778
        k(   30) = (   0.4714045   0.1178511  -0.1178511), wk =   0.0277778
        k(   31) = (  -0.1767767  -0.5303301   0.5303301), wk =   0.0277778
        k(   32) = (  -0.1178511  -0.4714045   0.4714045), wk =   0.0277778
        k(   33) = (  -0.0589256  -0.4124790   0.4124790), wk =   0.0277778
        k(   34) = (   0.0000000  -0.3535534   0.3535534), wk =   0.0138889
        k(   35) = (   0.4714045   0.0000000   0.0000000), wk =   0.0069444
        k(   36) = (   0.5303301   0.0589256  -0.0589256), wk =   0.0277778
        k(   37) = (  -0.1178511  -0.5892557   0.5892557), wk =   0.0277778
        k(   38) = (  -0.0589256  -0.5303301   0.5303301), wk =   0.0277778
        k(   39) = (  -0.0000000  -0.4714045   0.4714045), wk =   0.0138889
        k(   40) = (   0.5892557   0.0000000   0.0000000), wk =   0.0069444
        k(   41) = (  -0.0589256  -0.6481812   0.6481812), wk =   0.0277778
        k(   42) = (   0.0000000  -0.5892557   0.5892557), wk =   0.0138889
        k(   43) = (  -0.7071068   0.0000000   0.0000000), wk =   0.0034722
        k(   44) = (   0.2357023   0.1178511  -0.0000000), wk =   0.0277778
        k(   45) = (   0.2946278   0.1767767  -0.0589256), wk =   0.0555556
        k(   46) = (   0.3535534   0.2357023  -0.1178511), wk =   0.0555556
        k(   47) = (  -0.2946278  -0.4124790   0.5303301), wk =   0.0555556
        k(   48) = (  -0.2357023  -0.3535534   0.4714045), wk =   0.0277778
        k(   49) = (   0.3535534   0.1178511   0.0000000), wk =   0.0277778
        k(   50) = (   0.4124790   0.1767767  -0.0589256), wk =   0.0555556
        k(   51) = (  -0.2357023  -0.4714045   0.5892557), wk =   0.0555556
        k(   52) = (  -0.1767767  -0.4124790   0.5303301), wk =   0.0555556
        k(   53) = (  -0.1178511  -0.3535534   0.4714045), wk =   0.0555556
        k(   54) = (  -0.0589256  -0.2946278   0.4124790), wk =   0.0555556
        k(   55) = (   0.0000000  -0.2357023   0.3535534), wk =   0.0277778
        k(   56) = (   0.4714045   0.1178511   0.0000000), wk =   0.0277778
        k(   57) = (  -0.1767767  -0.5303301   0.6481812), wk =   0.0555556
        k(   58) = (  -0.1178511  -0.4714045   0.5892557), wk =   0.0555556
        k(   59) = (  -0.0589256  -0.4124790   0.5303301), wk =   0.0555556
        k(   60) = (  -0.0000000  -0.3535534   0.4714045), wk =   0.0277778
        k(   61) = (  -0.1178511  -0.5892557   0.7071068), wk =   0.0277778
        k(   62) = (  -0.0589256  -0.5303301   0.6481812), wk =   0.0555556
        k(   63) = (  -0.0000000  -0.4714045   0.5892557), wk =   0.0277778
        k(   64) = (  -0.7071068   0.1178511   0.0000000), wk =   0.0138889
        k(   65) = (  -0.2357023  -0.4714045   0.7071068), wk =   0.0277778
        k(   66) = (  -0.1767767  -0.4124790   0.6481812), wk =   0.0555556
        k(   67) = (  -0.1178511  -0.3535534   0.5892557), wk =   0.0277778
        k(   68) = (  -0.1178511  -0.4714045   0.7071068), wk =   0.0277778
        k(   69) = (  -0.0589256  -0.4124790   0.6481812), wk =   0.0555556
        k(   70) = (   0.0000000  -0.3535534   0.5892557), wk =   0.0277778
        k(   71) = (  -0.7071068   0.2357023   0.0000000), wk =   0.0138889
        k(   72) = (  -0.7071068   0.3535534   0.0000000), wk =   0.0069444

     Dense  grid:    64767 G-vectors     FFT dimensions: (  60,  60,  60)

     Largest allocated arrays     est. size (Mb)     dimensions
        Kohn-Sham Wavefunctions         0.06 Mb     (    1023,    4)
        NL pseudopotentials             0.16 Mb     (    1023,   10)
        Each V/rho on FFT grid          0.44 Mb     (   28800)
        Each G-vector array             0.06 Mb     (    8099)
        G-vector shells                 0.00 Mb     (     519)
     Largest temporary arrays     est. size (Mb)     dimensions
        Each subspace H/S matrix        0.00 Mb     (       4,    4)
        Each <psi_i|beta_j> matrix      0.00 Mb     (      10,    4)
        Arrays for rho mixing           3.52 Mb     (   28800,    8)

     Initial potential from superposition of free atoms

     starting charge    7.99889, renormalised to    8.00000
     Starting wfc are    8 randomized atomic wfcs

     total cpu time spent up to now is        1.5 secs

     per-process dynamical memory:    17.9 Mb

     Self-consistent Calculation

     iteration #  1     ecut=   120.00 Ry     beta=0.70
     CG style diagonalization
     ethr =  1.00E-02,  avg # of iterations =  2.5

     Threshold (ethr) on eigenvalues was too large:
     Diagonalizing with lowered threshold

     CG style diagonalization
     ethr =  3.78E-04,  avg # of iterations =  2.9

     total cpu time spent up to now is        5.7 secs

     total energy              =     -15.69165130 Ry
     Harris-Foulkes estimate   =     -15.69606592 Ry
     estimated scf accuracy    <       0.03404159 Ry

     iteration #  2     ecut=   120.00 Ry     beta=0.70
     CG style diagonalization
     ethr =  4.26E-04,  avg # of iterations =  3.0

     total cpu time spent up to now is        7.9 secs

     total energy              =     -15.69221368 Ry
     Harris-Foulkes estimate   =     -15.69234548 Ry
     estimated scf accuracy    <       0.00250370 Ry

     iteration #  3     ecut=   120.00 Ry     beta=0.70
     CG style diagonalization
     ethr =  3.13E-05,  avg # of iterations =  3.2

     total cpu time spent up to now is       10.3 secs

     total energy              =     -15.69240818 Ry
     Harris-Foulkes estimate   =     -15.69241267 Ry
     estimated scf accuracy    <       0.00001999 Ry

     iteration #  4     ecut=   120.00 Ry     beta=0.70
     CG style diagonalization
     ethr =  2.50E-07,  avg # of iterations =  5.6

     total cpu time spent up to now is       14.2 secs

     total energy              =     -15.69247024 Ry
     Harris-Foulkes estimate   =     -15.69247259 Ry
     estimated scf accuracy    <       0.00000523 Ry

     iteration #  5     ecut=   120.00 Ry     beta=0.70
     CG style diagonalization
     ethr =  6.53E-08,  avg # of iterations =  3.7

     total cpu time spent up to now is       16.9 secs

     total energy              =     -15.69247094 Ry
     Harris-Foulkes estimate   =     -15.69247095 Ry
     estimated scf accuracy    <       0.00000014 Ry

     iteration #  6     ecut=   120.00 Ry     beta=0.70
     CG style diagonalization
     ethr =  1.81E-09,  avg # of iterations =  4.7

     total cpu time spent up to now is       20.1 secs

     total energy              =     -15.69247101 Ry
     Harris-Foulkes estimate   =     -15.69247106 Ry
     estimated scf accuracy    <       0.00000012 Ry

     iteration #  7     ecut=   120.00 Ry     beta=0.70
     CG style diagonalization
     ethr =  1.54E-09,  avg # of iterations =  3.3

     total cpu time spent up to now is       22.6 secs

     total energy              =     -15.69247102 Ry
     Harris-Foulkes estimate   =     -15.69247102 Ry
     estimated scf accuracy    <          2.2E-10 Ry

     iteration #  8     ecut=   120.00 Ry     beta=0.70
     CG style diagonalization
     ethr =  2.71E-12,  avg # of iterations =  6.3

     total cpu time spent up to now is       26.8 secs

     total energy              =     -15.69247102 Ry
     Harris-Foulkes estimate   =     -15.69247102 Ry
     estimated scf accuracy    <          2.4E-11 Ry

     iteration #  9     ecut=   120.00 Ry     beta=0.70
     CG style diagonalization
     ethr =  3.02E-13,  avg # of iterations =  3.3

     total cpu time spent up to now is       29.3 secs

     total energy              =     -15.69247102 Ry
     Harris-Foulkes estimate   =     -15.69247102 Ry
     estimated scf accuracy    <          3.0E-12 Ry

     iteration # 10     ecut=   120.00 Ry     beta=0.70
     CG style diagonalization
     ethr =  1.00E-13,  avg # of iterations =  3.8

     total cpu time spent up to now is       32.0 secs

     total energy              =     -15.69247102 Ry
     Harris-Foulkes estimate   =     -15.69247102 Ry
     estimated scf accuracy    <          1.4E-12 Ry

     iteration # 11     ecut=   120.00 Ry     beta=0.70
     CG style diagonalization
     ethr =  1.00E-13,  avg # of iterations =  3.0

     total cpu time spent up to now is       34.2 secs

     End of self-consistent calculation

          k = 0.0000 0.0000 0.0000 (  7991 PWs)   bands (ev):

    -6.6194   3.4986   3.4986   3.4986

          k = 0.0589 0.0589-0.0589 (  8039 PWs)   bands (ev):

    -6.5499   2.4266   3.3952   3.3952

          k = 0.1179 0.1179-0.1179 (  8045 PWs)   bands (ev):

    -6.3443   1.1464   3.1638   3.1638

          k = 0.1768 0.1768-0.1768 (  8075 PWs)   bands (ev):

    -6.0142  -0.0703   2.9192   2.9192

          k = 0.2357 0.2357-0.2357 (  8057 PWs)   bands (ev):

    -5.5900  -1.1487   2.7224   2.7224

          k = 0.2946 0.2946-0.2946 (  8080 PWs)   bands (ev):

    -5.1577  -1.9807   2.5984   2.5984

          k =-0.3536-0.3536 0.3536 (  8086 PWs)   bands (ev):

    -4.9440  -2.3287   2.5563   2.5563

          k = 0.1179 0.0000 0.0000 (  8039 PWs)   bands (ev):

    -6.5265   2.3719   3.2034   3.2034

          k = 0.1768 0.0589-0.0589 (  8058 PWs)   bands (ev):

    -6.3656   1.4041   2.9340   2.9952

          k = 0.2357 0.1179-0.1179 (  8067 PWs)   bands (ev):

    -6.0752   0.2533   2.6877   2.7186

          k = 0.2946 0.1768-0.1768 (  8074 PWs)   bands (ev):

    -5.6771  -0.8373   2.4303   2.5129

          k = 0.3536 0.2357-0.2357 (  8076 PWs)   bands (ev):

    -5.2306  -1.7494   2.1957   2.4282

          k =-0.2946-0.4125 0.4125 (  8101 PWs)   bands (ev):

    -4.9074  -2.2877   2.0435   2.4379

          k =-0.2357-0.3536 0.3536 (  8092 PWs)   bands (ev):

    -4.9840  -2.1673   1.9877   2.5377

          k =-0.1768-0.2946 0.2946 (  8072 PWs)   bands (ev):

    -5.3792  -1.4712   2.0366   2.7166

          k =-0.1179-0.2357 0.2357 (  8075 PWs)   bands (ev):

    -5.8206  -0.4872   2.1968   2.9537

          k =-0.0589-0.1768 0.1768 (  8076 PWs)   bands (ev):

    -6.1864   0.6225   2.4763   3.2072

          k =-0.0000-0.1179 0.1179 (  8066 PWs)   bands (ev):

    -6.4347   1.6995   2.9018   3.3925

          k = 0.2357 0.0000 0.0000 (  8056 PWs)   bands (ev):

    -6.2494   1.0988   2.6423   2.6423

          k = 0.2946 0.0589-0.0589 (  8079 PWs)   bands (ev):

    -6.0008   0.2886   2.3260   2.3844

          k = 0.3536 0.1179-0.1179 (  8074 PWs)   bands (ev):

    -5.6350  -0.6631   1.9385   2.2074

          k = 0.4125 0.1768-0.1768 (  8077 PWs)   bands (ev):

    -5.1924  -1.5578   1.5805   2.1306

          k =-0.2357-0.4714 0.4714 (  8095 PWs)   bands (ev):

    -4.7942  -2.2107   1.3148   2.1590

          k =-0.1768-0.4125 0.4125 (  8093 PWs)   bands (ev):

    -4.7234  -2.3143   1.1699   2.2875

          k =-0.1179-0.3536 0.3536 (  8098 PWs)   bands (ev):

    -5.0569  -1.7931   1.1679   2.5018

          k =-0.0589-0.2946 0.2946 (  8094 PWs)   bands (ev):

    -5.5045  -0.9705   1.3431   2.7722

          k = 0.0000-0.2357 0.2357 (  8084 PWs)   bands (ev):

    -5.8996  -0.1030   1.7621   3.0414

          k = 0.3536 0.0000 0.0000 (  8108 PWs)   bands (ev):

    -5.7935  -0.1359   2.1101   2.1101

          k = 0.4125 0.0589-0.0589 (  8093 PWs)   bands (ev):

    -5.4634  -0.8315   1.7594   1.9165

          k = 0.4714 0.1179-0.1179 (  8077 PWs)   bands (ev):

    -5.0374  -1.5861   1.2856   1.8265

          k =-0.1768-0.5303 0.5303 (  8095 PWs)   bands (ev):

    -4.5967  -2.2387   0.8716   1.8474

          k =-0.1179-0.4714 0.4714 (  8091 PWs)   bands (ev):

    -4.3907  -2.5074   0.6098   1.9760

          k =-0.0589-0.4125 0.4125 (  8100 PWs)   bands (ev):

    -4.6470  -2.1700   0.5546   2.1985

          k = 0.0000-0.3536 0.3536 (  8088 PWs)   bands (ev):

    -5.0904  -1.5572   0.7753   2.4844

          k = 0.4714 0.0000 0.0000 (  8100 PWs)   bands (ev):

    -5.1680  -1.3201   1.7005   1.7005

          k = 0.5303 0.0589-0.0589 (  8091 PWs)   bands (ev):

    -4.7660  -1.9273   1.3665   1.5871

          k =-0.1179-0.5893 0.5893 (  8093 PWs)   bands (ev):

    -4.3081  -2.5101   0.8717   1.5866

          k =-0.0589-0.5303 0.5303 (  8099 PWs)   bands (ev):

    -4.0007  -2.8500   0.4751   1.6986

          k =-0.0000-0.4714 0.4714 (  8114 PWs)   bands (ev):

    -4.2124  -2.6145   0.3326   1.9117

          k = 0.5893 0.0000 0.0000 (  8108 PWs)   bands (ev):

    -4.3870  -2.4387   1.4462   1.4462

          k =-0.0589-0.6482 0.6482 (  8098 PWs)   bands (ev):

    -3.9282  -2.9681   1.1669   1.4182

          k = 0.0000-0.5893 0.5893 (  8102 PWs)   bands (ev):

    -3.6293  -3.2550   0.7315   1.5050

          k =-0.7071 0.0000 0.0000 (  8144 PWs)   bands (ev):

    -3.4694  -3.4694   1.3603   1.3603

          k = 0.2357 0.1179-0.0000 (  8054 PWs)   bands (ev):

    -6.1613   0.6759   2.3337   2.9262

          k = 0.2946 0.1768-0.0589 (  8084 PWs)   bands (ev):

    -5.8328  -0.2704   1.8890   2.7249

          k = 0.3536 0.2357-0.1179 (  8087 PWs)   bands (ev):

    -5.4092  -1.2255   1.6180   2.4921

          k =-0.2946-0.4125 0.5303 (  8087 PWs)   bands (ev):

    -4.9736  -2.0063   1.4737   2.3218

          k =-0.2357-0.3536 0.4714 (  8082 PWs)   bands (ev):

    -4.7552  -2.3434   1.4287   2.2600

          k = 0.3536 0.1179 0.0000 (  8088 PWs)   bands (ev):

    -5.7123  -0.3828   1.8059   2.2712

          k = 0.4125 0.1768-0.0589 (  8079 PWs)   bands (ev):

    -5.3156  -1.1721   1.3750   2.0737

          k =-0.2357-0.4714 0.5893 (  8101 PWs)   bands (ev):

    -4.8656  -1.9228   1.0599   1.9327

          k =-0.1768-0.4125 0.5303 (  8097 PWs)   bands (ev):

    -4.5340  -2.3991   0.8594   1.9204

          k =-0.1179-0.3536 0.4714 (  8110 PWs)   bands (ev):

    -4.6247  -2.2730   0.7934   2.0393

          k =-0.0589-0.2946 0.4125 (  8087 PWs)   bands (ev):

    -5.0334  -1.6659   0.9022   2.2608

          k = 0.0000-0.2357 0.3536 (  8082 PWs)   bands (ev):

    -5.4733  -0.9307   1.2501   2.5268

          k = 0.4714 0.1179 0.0000 (  8095 PWs)   bands (ev):

    -5.0988  -1.4412   1.4168   1.7240

          k =-0.1768-0.5303 0.6482 (  8093 PWs)   bands (ev):

    -4.6535  -2.0790   0.9976   1.5758

          k =-0.1179-0.4714 0.5893 (  8099 PWs)   bands (ev):

    -4.2442  -2.5885   0.6266   1.5783

          k =-0.0589-0.4125 0.5303 (  8099 PWs)   bands (ev):

    -4.2109  -2.6235   0.4313   1.7186

          k =-0.0000-0.3536 0.4714 (  8109 PWs)   bands (ev):

    -4.5900  -2.1799   0.4997   1.9648

          k =-0.1179-0.5893 0.7071 (  8105 PWs)   bands (ev):

    -4.3376  -2.4754   1.2023   1.3533

          k =-0.0589-0.5303 0.6482 (  8096 PWs)   bands (ev):

    -3.8833  -2.9705   0.7949   1.3194

          k =-0.0000-0.4714 0.5893 (  8091 PWs)   bands (ev):

    -3.8120  -3.0262   0.4613   1.4625

          k =-0.7071 0.1179 0.0000 (  8088 PWs)   bands (ev):

    -3.4527  -3.4527   1.1787   1.1787

          k =-0.2357-0.4714 0.7071 (  8087 PWs)   bands (ev):

    -4.8984  -1.7605   0.9049   1.8238

          k =-0.1768-0.4125 0.6482 (  8107 PWs)   bands (ev):

    -4.4519  -2.3391   0.6400   1.5966

          k =-0.1179-0.3536 0.5893 (  8100 PWs)   bands (ev):

    -4.2094  -2.6325   0.5581   1.5090

          k =-0.1179-0.4714 0.7071 (  8096 PWs)   bands (ev):

    -4.2011  -2.5932   0.7717   1.2377

          k =-0.0589-0.4125 0.6482 (  8101 PWs)   bands (ev):

    -3.8344  -2.9770   0.5697   1.1277

          k = 0.0000-0.3536 0.5893 (  8093 PWs)   bands (ev):

    -4.0113  -2.7895   0.4807   1.2849

          k =-0.7071 0.2357 0.0000 (  8086 PWs)   bands (ev):

    -3.4182  -3.4182   0.8786   0.8786

          k =-0.7071 0.3536 0.0000 (  8088 PWs)   bands (ev):

    -3.4004  -3.4004   0.7488   0.7488

     highest occupied level (ev):     3.4986

!    total energy              =     -15.69247102 Ry
     Harris-Foulkes estimate   =     -15.69247102 Ry
     estimated scf accuracy    <          3.1E-13 Ry

     The total energy is the sum of the following terms:

     one-electron contribution =       2.66234081 Ry
     hartree contribution      =       1.37079481 Ry
     xc contribution           =      -4.52256262 Ry
     ewald contribution        =     -15.20304401 Ry

     convergence has been achieved in  11 iterations

     Writing output data file si.save

     init_run     :      1.39s CPU      1.44s WALL (       1 calls)
     electrons    :     31.43s CPU     32.75s WALL (       1 calls)

     Called by init_run:
     wfcinit      :      1.20s CPU      1.25s WALL (       1 calls)
     potinit      :      0.06s CPU      0.06s WALL (       1 calls)

     Called by electrons:
     c_bands      :     26.99s CPU     28.16s WALL (      12 calls)
     sum_band     :      3.86s CPU      3.99s WALL (      12 calls)
     v_of_rho     :      0.49s CPU      0.50s WALL (      12 calls)
     mix_rho      :      0.10s CPU      0.11s WALL (      12 calls)

     Called by c_bands:
     init_us_2    :      0.82s CPU      0.82s WALL (    1800 calls)
     ccgdiagg     :     21.05s CPU     22.00s WALL (     864 calls)
     wfcrot       :      6.46s CPU      6.70s WALL (     792 calls)

     Called by sum_band:

     Called by *cgdiagg:
     h_psi        :     25.46s CPU     26.59s WALL (   10941 calls)
     cdiaghg      :      0.03s CPU      0.05s WALL (     792 calls)

     Called by h_psi:
     add_vuspsi   :      0.30s CPU      0.33s WALL (   10941 calls)
     h_1psi       :     19.28s CPU     20.20s WALL (   10149 calls)

     General routines
     calbec       :      1.20s CPU      1.44s WALL (   21090 calls)
     fft          :      0.19s CPU      0.20s WALL (     133 calls)
     fftw         :     24.06s CPU     24.68s WALL (   30666 calls)
     davcio       :      0.00s CPU      0.00s WALL (      72 calls)

     Parallel routines
     fft_scatter  :      3.29s CPU      4.08s WALL (   30799 calls)

     PWSCF        :    33.08s CPU        34.46s WALL


   This run was terminated on:   8:57:24   5Apr2016            

=------------------------------------------------------------------------------=
   JOB DONE.
=------------------------------------------------------------------------------=
