
     Program PWSCF v.5.3.0 (svn rev. 11974) starts on  5Apr2016 at  9: 3:58 

     This program is part of the open-source Quantum ESPRESSO suite
     for quantum simulation of materials; please cite
         "P. Giannozzi et al., J. Phys.:Condens. Matter 21 395502 (2009);
          URL http://www.quantum-espresso.org", 
     in publications or presentations arising from this work. More details at
     http://www.quantum-espresso.org/quote

     Parallel version (MPI), running on     8 processors
     R & G space division:  proc/nbgrp/npool/nimage =       8
     Waiting for input...
     Reading input from standard input

     Current dimensions of program PWSCF are:
     Max number of different atomic species (ntypx) = 10
     Max number of k-points (npk) =  40000
     Max angular momentum in pseudopotentials (lmaxx) =  3

     Subspace diagonalization in iterative solution of the eigenvalue problem:
     a serial algorithm will be used


     Parallelization info
     --------------------
     sticks:   dense  smooth     PW     G-vecs:    dense   smooth      PW
     Min         199     199     57                 5260     5260     826
     Max         200     200     58                 5262     5262     828
     Sum        1597    1597    463                42087    42087    6615



     bravais-lattice index     =            0
     lattice parameter (alat)  =       6.9484  a.u.
     unit-cell volume          =     237.2175 (a.u.)^3
     number of atoms/cell      =            2
     number of atomic types    =            1
     number of electrons       =         8.00
     number of Kohn-Sham states=            4
     kinetic-energy cutoff     =     120.0000  Ry
     charge density cutoff     =     480.0000  Ry
     convergence threshold     =      1.0E-12
     mixing beta               =       0.7000
     number of iterations used =            8  plain     mixing
     Exchange-correlation      =  SLA  PW   PBE  PBE ( 1  4  3  4 0 0)

     celldm(1)=   6.948438  celldm(2)=   0.000000  celldm(3)=   0.000000
     celldm(4)=   0.000000  celldm(5)=   0.000000  celldm(6)=   0.000000

     crystal axes: (cart. coord. in units of alat)
               a(1) = (   0.000000   0.707107   0.707107 )  
               a(2) = (   0.707107   0.000000   0.707107 )  
               a(3) = (   0.707107   0.707107   0.000000 )  

     reciprocal axes: (cart. coord. in units 2 pi/alat)
               b(1) = ( -0.707107  0.707107  0.707107 )  
               b(2) = (  0.707107 -0.707107  0.707107 )  
               b(3) = (  0.707107  0.707107 -0.707107 )  


     PseudoPot. # 1 for Si read from file:
     /home/junhao/espresso/espresso-5.3.0/pseudo/Si.pbe-rrkj.UPF
     MD5 check sum: cf7ab5690cd9a85b22c4813f7e365554
     Pseudo is Norm-conserving, Zval =  4.0
     Generated by new atomic code, or converted to UPF format
     Using radial grid of  883 points,  3 beta functions with: 
                l(1) =   0
                l(2) =   0
                l(3) =   1

     atomic species   valence    mass     pseudopotential
        Si             4.00    28.08550     Si( 1.00)

     24 Sym. Ops. (no inversion) found
          (note: 24 additional sym.ops. were found but ignored
           their fractional translations are incommensurate with FFT grid)


   Cartesian axes

     site n.     atom                  positions (alat units)
         1           Si  tau(   1) = (   0.0000000   0.0000000   0.0000000  )
         2           Si  tau(   2) = (   0.3535534   0.3535534   0.3535534  )

     number of k points=    72
                       cart. coord. in units 2pi/alat
        k(    1) = (   0.0000000   0.0000000   0.0000000), wk =   0.0011574
        k(    2) = (   0.0589256   0.0589256  -0.0589256), wk =   0.0092593
        k(    3) = (   0.1178511   0.1178511  -0.1178511), wk =   0.0092593
        k(    4) = (   0.1767767   0.1767767  -0.1767767), wk =   0.0092593
        k(    5) = (   0.2357023   0.2357023  -0.2357023), wk =   0.0092593
        k(    6) = (   0.2946278   0.2946278  -0.2946278), wk =   0.0092593
        k(    7) = (  -0.3535534  -0.3535534   0.3535534), wk =   0.0046296
        k(    8) = (   0.1178511   0.0000000   0.0000000), wk =   0.0069444
        k(    9) = (   0.1767767   0.0589256  -0.0589256), wk =   0.0277778
        k(   10) = (   0.2357023   0.1178511  -0.1178511), wk =   0.0277778
        k(   11) = (   0.2946278   0.1767767  -0.1767767), wk =   0.0277778
        k(   12) = (   0.3535534   0.2357023  -0.2357023), wk =   0.0277778
        k(   13) = (  -0.2946278  -0.4124790   0.4124790), wk =   0.0277778
        k(   14) = (  -0.2357023  -0.3535534   0.3535534), wk =   0.0277778
        k(   15) = (  -0.1767767  -0.2946278   0.2946278), wk =   0.0277778
        k(   16) = (  -0.1178511  -0.2357023   0.2357023), wk =   0.0277778
        k(   17) = (  -0.0589256  -0.1767767   0.1767767), wk =   0.0277778
        k(   18) = (  -0.0000000  -0.1178511   0.1178511), wk =   0.0138889
        k(   19) = (   0.2357023   0.0000000   0.0000000), wk =   0.0069444
        k(   20) = (   0.2946278   0.0589256  -0.0589256), wk =   0.0277778
        k(   21) = (   0.3535534   0.1178511  -0.1178511), wk =   0.0277778
        k(   22) = (   0.4124790   0.1767767  -0.1767767), wk =   0.0277778
        k(   23) = (  -0.2357023  -0.4714045   0.4714045), wk =   0.0277778
        k(   24) = (  -0.1767767  -0.4124790   0.4124790), wk =   0.0277778
        k(   25) = (  -0.1178511  -0.3535534   0.3535534), wk =   0.0277778
        k(   26) = (  -0.0589256  -0.2946278   0.2946278), wk =   0.0277778
        k(   27) = (   0.0000000  -0.2357023   0.2357023), wk =   0.0138889
        k(   28) = (   0.3535534   0.0000000   0.0000000), wk =   0.0069444
        k(   29) = (   0.4124790   0.0589256  -0.0589256), wk =   0.0277778
        k(   30) = (   0.4714045   0.1178511  -0.1178511), wk =   0.0277778
        k(   31) = (  -0.1767767  -0.5303301   0.5303301), wk =   0.0277778
        k(   32) = (  -0.1178511  -0.4714045   0.4714045), wk =   0.0277778
        k(   33) = (  -0.0589256  -0.4124790   0.4124790), wk =   0.0277778
        k(   34) = (   0.0000000  -0.3535534   0.3535534), wk =   0.0138889
        k(   35) = (   0.4714045   0.0000000   0.0000000), wk =   0.0069444
        k(   36) = (   0.5303301   0.0589256  -0.0589256), wk =   0.0277778
        k(   37) = (  -0.1178511  -0.5892557   0.5892557), wk =   0.0277778
        k(   38) = (  -0.0589256  -0.5303301   0.5303301), wk =   0.0277778
        k(   39) = (  -0.0000000  -0.4714045   0.4714045), wk =   0.0138889
        k(   40) = (   0.5892557   0.0000000   0.0000000), wk =   0.0069444
        k(   41) = (  -0.0589256  -0.6481812   0.6481812), wk =   0.0277778
        k(   42) = (   0.0000000  -0.5892557   0.5892557), wk =   0.0138889
        k(   43) = (  -0.7071068   0.0000000   0.0000000), wk =   0.0034722
        k(   44) = (   0.2357023   0.1178511  -0.0000000), wk =   0.0277778
        k(   45) = (   0.2946278   0.1767767  -0.0589256), wk =   0.0555556
        k(   46) = (   0.3535534   0.2357023  -0.1178511), wk =   0.0555556
        k(   47) = (  -0.2946278  -0.4124790   0.5303301), wk =   0.0555556
        k(   48) = (  -0.2357023  -0.3535534   0.4714045), wk =   0.0277778
        k(   49) = (   0.3535534   0.1178511   0.0000000), wk =   0.0277778
        k(   50) = (   0.4124790   0.1767767  -0.0589256), wk =   0.0555556
        k(   51) = (  -0.2357023  -0.4714045   0.5892557), wk =   0.0555556
        k(   52) = (  -0.1767767  -0.4124790   0.5303301), wk =   0.0555556
        k(   53) = (  -0.1178511  -0.3535534   0.4714045), wk =   0.0555556
        k(   54) = (  -0.0589256  -0.2946278   0.4124790), wk =   0.0555556
        k(   55) = (   0.0000000  -0.2357023   0.3535534), wk =   0.0277778
        k(   56) = (   0.4714045   0.1178511   0.0000000), wk =   0.0277778
        k(   57) = (  -0.1767767  -0.5303301   0.6481812), wk =   0.0555556
        k(   58) = (  -0.1178511  -0.4714045   0.5892557), wk =   0.0555556
        k(   59) = (  -0.0589256  -0.4124790   0.5303301), wk =   0.0555556
        k(   60) = (  -0.0000000  -0.3535534   0.4714045), wk =   0.0277778
        k(   61) = (  -0.1178511  -0.5892557   0.7071068), wk =   0.0277778
        k(   62) = (  -0.0589256  -0.5303301   0.6481812), wk =   0.0555556
        k(   63) = (  -0.0000000  -0.4714045   0.5892557), wk =   0.0277778
        k(   64) = (  -0.7071068   0.1178511   0.0000000), wk =   0.0138889
        k(   65) = (  -0.2357023  -0.4714045   0.7071068), wk =   0.0277778
        k(   66) = (  -0.1767767  -0.4124790   0.6481812), wk =   0.0555556
        k(   67) = (  -0.1178511  -0.3535534   0.5892557), wk =   0.0277778
        k(   68) = (  -0.1178511  -0.4714045   0.7071068), wk =   0.0277778
        k(   69) = (  -0.0589256  -0.4124790   0.6481812), wk =   0.0555556
        k(   70) = (   0.0000000  -0.3535534   0.5892557), wk =   0.0277778
        k(   71) = (  -0.7071068   0.2357023   0.0000000), wk =   0.0138889
        k(   72) = (  -0.7071068   0.3535534   0.0000000), wk =   0.0069444

     Dense  grid:    42087 G-vectors     FFT dimensions: (  50,  50,  50)

     Largest allocated arrays     est. size (Mb)     dimensions
        Kohn-Sham Wavefunctions         0.04 Mb     (     667,    4)
        NL pseudopotentials             0.10 Mb     (     667,   10)
        Each V/rho on FFT grid          0.27 Mb     (   17500)
        Each G-vector array             0.04 Mb     (    5262)
        G-vector shells                 0.00 Mb     (     393)
     Largest temporary arrays     est. size (Mb)     dimensions
        Each subspace H/S matrix        0.00 Mb     (       4,    4)
        Each <psi_i|beta_j> matrix      0.00 Mb     (      10,    4)
        Arrays for rho mixing           2.14 Mb     (   17500,    8)

     Initial potential from superposition of free atoms

     starting charge    7.99889, renormalised to    8.00000
     Starting wfc are    8 randomized atomic wfcs

     total cpu time spent up to now is        1.0 secs

     per-process dynamical memory:    14.7 Mb

     Self-consistent Calculation

     iteration #  1     ecut=   120.00 Ry     beta=0.70
     CG style diagonalization
     ethr =  1.00E-02,  avg # of iterations =  3.0

     Threshold (ethr) on eigenvalues was too large:
     Diagonalizing with lowered threshold

     CG style diagonalization
     ethr =  9.12E-04,  avg # of iterations =  2.0

     total cpu time spent up to now is        3.4 secs

     total energy              =     -15.71572705 Ry
     Harris-Foulkes estimate   =     -15.73497351 Ry
     estimated scf accuracy    <       0.07003924 Ry

     iteration #  2     ecut=   120.00 Ry     beta=0.70
     CG style diagonalization
     ethr =  8.75E-04,  avg # of iterations =  3.0

     total cpu time spent up to now is        4.7 secs

     total energy              =     -15.71895624 Ry
     Harris-Foulkes estimate   =     -15.71898535 Ry
     estimated scf accuracy    <       0.00321833 Ry

     iteration #  3     ecut=   120.00 Ry     beta=0.70
     CG style diagonalization
     ethr =  4.02E-05,  avg # of iterations =  4.1

     total cpu time spent up to now is        6.5 secs

     total energy              =     -15.72001646 Ry
     Harris-Foulkes estimate   =     -15.72010362 Ry
     estimated scf accuracy    <       0.00020261 Ry

     iteration #  4     ecut=   120.00 Ry     beta=0.70
     CG style diagonalization
     ethr =  2.53E-06,  avg # of iterations =  4.0

     total cpu time spent up to now is        8.3 secs

     total energy              =     -15.72005359 Ry
     Harris-Foulkes estimate   =     -15.72008149 Ry
     estimated scf accuracy    <       0.00006736 Ry

     iteration #  5     ecut=   120.00 Ry     beta=0.70
     CG style diagonalization
     ethr =  8.42E-07,  avg # of iterations =  3.5

     total cpu time spent up to now is        9.8 secs

     total energy              =     -15.72006163 Ry
     Harris-Foulkes estimate   =     -15.72006160 Ry
     estimated scf accuracy    <       0.00000005 Ry

     iteration #  6     ecut=   120.00 Ry     beta=0.70
     CG style diagonalization
     ethr =  6.32E-10,  avg # of iterations =  6.1

     total cpu time spent up to now is       12.3 secs

     total energy              =     -15.72006230 Ry
     Harris-Foulkes estimate   =     -15.72006229 Ry
     estimated scf accuracy    <          9.7E-09 Ry

     iteration #  7     ecut=   120.00 Ry     beta=0.70
     CG style diagonalization
     ethr =  1.21E-10,  avg # of iterations =  4.2

     total cpu time spent up to now is       14.1 secs

     total energy              =     -15.72006229 Ry
     Harris-Foulkes estimate   =     -15.72006230 Ry
     estimated scf accuracy    <       0.00000002 Ry

     iteration #  8     ecut=   120.00 Ry     beta=0.70
     CG style diagonalization
     ethr =  1.21E-10,  avg # of iterations =  3.9

     total cpu time spent up to now is       15.8 secs

     total energy              =     -15.72006230 Ry
     Harris-Foulkes estimate   =     -15.72006230 Ry
     estimated scf accuracy    <          1.1E-09 Ry

     iteration #  9     ecut=   120.00 Ry     beta=0.70
     CG style diagonalization
     ethr =  1.37E-11,  avg # of iterations =  3.8

     total cpu time spent up to now is       17.5 secs

     total energy              =     -15.72006230 Ry
     Harris-Foulkes estimate   =     -15.72006230 Ry
     estimated scf accuracy    <          8.1E-12 Ry

     iteration # 10     ecut=   120.00 Ry     beta=0.70
     CG style diagonalization
     ethr =  1.01E-13,  avg # of iterations =  5.2

     total cpu time spent up to now is       19.6 secs

     total energy              =     -15.72006230 Ry
     Harris-Foulkes estimate   =     -15.72006230 Ry
     estimated scf accuracy    <          7.7E-12 Ry

     iteration # 11     ecut=   120.00 Ry     beta=0.70
     CG style diagonalization
     ethr =  1.00E-13,  avg # of iterations =  3.0

     total cpu time spent up to now is       21.0 secs

     total energy              =     -15.72006230 Ry
     Harris-Foulkes estimate   =     -15.72006230 Ry
     estimated scf accuracy    <          4.7E-12 Ry

     iteration # 12     ecut=   120.00 Ry     beta=0.70
     CG style diagonalization
     ethr =  1.00E-13,  avg # of iterations =  3.0

     total cpu time spent up to now is       22.3 secs

     End of self-consistent calculation

          k = 0.0000 0.0000 0.0000 (  5209 PWs)   bands (ev):

    -5.1719   7.6639   7.6639   7.6639

          k = 0.0589 0.0589-0.0589 (  5191 PWs)   bands (ev):

    -5.0704   6.7922   7.5005   7.5005

          k = 0.1179 0.1179-0.1179 (  5258 PWs)   bands (ev):

    -4.7687   5.1756   7.1597   7.1597

          k = 0.1768 0.1768-0.1768 (  5264 PWs)   bands (ev):

    -4.2766   3.4949   6.8235   6.8235

          k = 0.2357 0.2357-0.2357 (  5273 PWs)   bands (ev):

    -3.6220   1.9421   6.5662   6.5662

          k = 0.2946 0.2946-0.2946 (  5270 PWs)   bands (ev):

    -2.8982   0.6653   6.4095   6.4095

          k =-0.3536-0.3536 0.3536 (  5252 PWs)   bands (ev):

    -2.4868   0.0675   6.3572   6.3572

          k = 0.1179 0.0000 0.0000 (  5205 PWs)   bands (ev):

    -5.0365   7.0624   7.1642   7.1642

          k = 0.1768 0.0589-0.0589 (  5233 PWs)   bands (ev):

    -4.8011   5.7045   6.7554   7.0388

          k = 0.2357 0.1179-0.1179 (  5255 PWs)   bands (ev):

    -4.3711   4.0656   6.4130   6.6929

          k = 0.2946 0.1768-0.1768 (  5270 PWs)   bands (ev):

    -3.7661   2.4806   6.1899   6.3095

          k = 0.3536 0.2357-0.2357 (  5265 PWs)   bands (ev):

    -3.0457   1.1004   5.9828   6.1015

          k =-0.2946-0.4125 0.4125 (  5262 PWs)   bands (ev):

    -2.4528   0.2025   5.7498   6.1464

          k =-0.2357-0.3536 0.3536 (  5268 PWs)   bands (ev):

    -2.6028   0.4146   5.6317   6.3131

          k =-0.1768-0.2946 0.2946 (  5266 PWs)   bands (ev):

    -3.2921   1.5304   5.6446   6.5831

          k =-0.1179-0.2357 0.2357 (  5258 PWs)   bands (ev):

    -3.9860   2.9957   5.8004   6.9275

          k =-0.0589-0.1768 0.1768 (  5251 PWs)   bands (ev):

    -4.5359   4.6040   6.1107   7.2911

          k =-0.0000-0.1179 0.1179 (  5228 PWs)   bands (ev):

    -4.9020   6.0726   6.6655   7.5468

          k = 0.2357 0.0000 0.0000 (  5269 PWs)   bands (ev):

    -4.6322   5.7502   6.3039   6.3039

          k = 0.2946 0.0589-0.0589 (  5257 PWs)   bands (ev):

    -4.2666   4.5155   5.9339   5.9822

          k = 0.3536 0.1179-0.1179 (  5255 PWs)   bands (ev):

    -3.7178   3.0370   5.5081   5.6973

          k = 0.4125 0.1768-0.1768 (  5261 PWs)   bands (ev):

    -3.0248   1.6414   5.0292   5.6123

          k =-0.2357-0.4714 0.4714 (  5265 PWs)   bands (ev):

    -2.3350   0.5593   4.6429   5.6809

          k =-0.1768-0.4125 0.4125 (  5271 PWs)   bands (ev):

    -2.1915   0.3645   4.3912   5.8941

          k =-0.1179-0.3536 0.3536 (  5281 PWs)   bands (ev):

    -2.7912   1.2549   4.3031   6.2308

          k =-0.0589-0.2946 0.2946 (  5278 PWs)   bands (ev):

    -3.5090   2.5648   4.4204   6.6486

          k = 0.0000-0.2357 0.2357 (  5250 PWs)   bands (ev):

    -4.1097   3.8440   4.9222   7.0601

          k = 0.3536 0.0000 0.0000 (  5297 PWs)   bands (ev):

    -3.9652   4.2013   5.5292   5.5292

          k = 0.4125 0.0589-0.0589 (  5265 PWs)   bands (ev):

    -3.4762   3.1883   5.0165   5.2583

          k = 0.4714 0.1179-0.1179 (  5268 PWs)   bands (ev):

    -2.8255   2.0169   4.3176   5.1441

          k =-0.1768-0.5303 0.5303 (  5264 PWs)   bands (ev):

    -2.1017   0.9403   3.7143   5.1928

          k =-0.1179-0.4714 0.4714 (  5263 PWs)   bands (ev):

    -1.7020   0.4332   3.3028   5.3991

          k =-0.0589-0.4125 0.4125 (  5270 PWs)   bands (ev):

    -2.1514   1.0243   3.1401   5.7456

          k = 0.0000-0.3536 0.3536 (  5288 PWs)   bands (ev):

    -2.8708   1.9669   3.4074   6.1922

          k = 0.4714 0.0000 0.0000 (  5257 PWs)   bands (ev):

    -3.0468   2.5781   4.9460   4.9460

          k = 0.5303 0.0589-0.0589 (  5271 PWs)   bands (ev):

    -2.4463   1.7110   4.3783   4.7900

          k =-0.1179-0.5893 0.5893 (  5274 PWs)   bands (ev):

    -1.7281   0.8543   3.5263   4.8001

          k =-0.0589-0.5303 0.5303 (  5274 PWs)   bands (ev):

    -1.1602   0.2753   2.8512   4.9748

          k =-0.0000-0.4714 0.4714 (  5256 PWs)   bands (ev):

    -1.4629   0.5839   2.6189   5.3010

          k = 0.5893 0.0000 0.0000 (  5281 PWs)   bands (ev):

    -1.8959   0.9708   4.5877   4.5877

          k =-0.0589-0.6482 0.6482 (  5274 PWs)   bands (ev):

    -1.2045   0.2087   4.0707   4.5517

          k = 0.0000-0.5893 0.5893 (  5278 PWs)   bands (ev):

    -0.6533  -0.2589   3.2688   4.6837

          k =-0.7071 0.0000 0.0000 (  5290 PWs)   bands (ev):

    -0.5417  -0.5417   4.4671   4.4671

          k = 0.2357 0.1179-0.0000 (  5254 PWs)   bands (ev):

    -4.5008   4.9116   5.7989   6.9140

          k = 0.2946 0.1768-0.0589 (  5260 PWs)   bands (ev):

    -4.0111   3.5355   5.2453   6.6001

          k = 0.3536 0.2357-0.1179 (  5266 PWs)   bands (ev):

    -3.3589   2.0717   4.9891   6.2215

          k =-0.2946-0.4125 0.5303 (  5267 PWs)   bands (ev):

    -2.6352   0.8282   4.8782   5.9306

          k =-0.2357-0.3536 0.4714 (  5272 PWs)   bands (ev):

    -2.2202   0.2361   4.8514   5.8201

          k = 0.3536 0.1179 0.0000 (  5264 PWs)   bands (ev):

    -3.8399   3.7015   5.0233   5.8580

          k = 0.4125 0.1768-0.0589 (  5266 PWs)   bands (ev):

    -3.2392   2.5216   4.4563   5.5134

          k =-0.2357-0.4714 0.5893 (  5269 PWs)   bands (ev):

    -2.5212   1.3055   4.1011   5.2591

          k =-0.1768-0.4125 0.5303 (  5273 PWs)   bands (ev):

    -1.9244   0.4656   3.8377   5.2373

          k =-0.1179-0.3536 0.4714 (  5269 PWs)   bands (ev):

    -2.0886   0.6892   3.6873   5.4409

          k =-0.0589-0.2946 0.4125 (  5268 PWs)   bands (ev):

    -2.7824   1.7193   3.7266   5.8104

          k = 0.0000-0.2357 0.3536 (  5265 PWs)   bands (ev):

    -3.4692   2.8288   4.1514   6.2557

          k = 0.4714 0.1179 0.0000 (  5266 PWs)   bands (ev):

    -2.9326   2.3755   4.4546   4.9357

          k =-0.1768-0.5303 0.6482 (  5268 PWs)   bands (ev):

    -2.2447   1.4448   3.7846   4.6801

          k =-0.1179-0.4714 0.5893 (  5279 PWs)   bands (ev):

    -1.5532   0.6120   3.1920   4.6934

          k =-0.0589-0.4125 0.5303 (  5274 PWs)   bands (ev):

    -1.4544   0.5151   2.8522   4.9240

          k =-0.0000-0.3536 0.4714 (  5272 PWs)   bands (ev):

    -2.0841   1.1913   2.9410   5.3212

          k =-0.1179-0.5893 0.7071 (  5270 PWs)   bands (ev):

    -1.8023   0.9404   4.1346   4.3443

          k =-0.0589-0.5303 0.6482 (  5278 PWs)   bands (ev):

    -1.0797   0.2291   3.3793   4.2994

          k =-0.0000-0.4714 0.5893 (  5269 PWs)   bands (ev):

    -0.8632   0.0755   2.7893   4.5248

          k =-0.7071 0.1179 0.0000 (  5280 PWs)   bands (ev):

    -0.4885  -0.4885   4.0887   4.0887

          k =-0.2357-0.4714 0.7071 (  5256 PWs)   bands (ev):

    -2.6000   1.8438   3.6158   5.0593

          k =-0.1768-0.4125 0.6482 (  5265 PWs)   bands (ev):

    -1.8794   0.9696   3.2413   4.6604

          k =-0.1179-0.3536 0.5893 (  5260 PWs)   bands (ev):

    -1.4457   0.4525   3.1538   4.5068

          k =-0.1179-0.4714 0.7071 (  5275 PWs)   bands (ev):

    -1.5422   0.7906   3.3765   4.0555

          k =-0.0589-0.4125 0.6482 (  5264 PWs)   bands (ev):

    -0.9278   0.2203   2.9932   3.8817

          k = 0.0000-0.3536 0.5893 (  5263 PWs)   bands (ev):

    -1.1873   0.4682   2.8500   4.1439

          k =-0.7071 0.2357 0.0000 (  5274 PWs)   bands (ev):

    -0.3714  -0.3714   3.4966   3.4966

          k =-0.7071 0.3536 0.0000 (  5268 PWs)   bands (ev):

    -0.3062  -0.3062   3.2420   3.2420

     highest occupied level (ev):     7.6639

!    total energy              =     -15.72006230 Ry
     Harris-Foulkes estimate   =     -15.72006230 Ry
     estimated scf accuracy    <          4.1E-13 Ry

     The total energy is the sum of the following terms:

     one-electron contribution =       5.79160167 Ry
     hartree contribution      =       0.98570961 Ry
     xc contribution           =      -4.95539972 Ry
     ewald contribution        =     -17.54197386 Ry

     convergence has been achieved in  12 iterations

     Writing output data file si.save

     init_run     :      0.90s CPU      0.94s WALL (       1 calls)
     electrons    :     20.53s CPU     21.38s WALL (       1 calls)

     Called by init_run:
     wfcinit      :      0.77s CPU      0.81s WALL (       1 calls)
     potinit      :      0.04s CPU      0.04s WALL (       1 calls)

     Called by electrons:
     c_bands      :     17.76s CPU     18.47s WALL (      13 calls)
     sum_band     :      2.38s CPU      2.50s WALL (      13 calls)
     v_of_rho     :      0.31s CPU      0.32s WALL (      13 calls)
     mix_rho      :      0.08s CPU      0.10s WALL (      13 calls)

     Called by c_bands:
     init_us_2    :      0.54s CPU      0.48s WALL (    1944 calls)
     ccgdiagg     :     13.68s CPU     14.24s WALL (     936 calls)
     wfcrot       :      4.43s CPU      4.60s WALL (     864 calls)

     Called by sum_band:

     Called by *cgdiagg:
     h_psi        :     16.77s CPU     17.45s WALL (   11791 calls)
     cdiaghg      :      0.06s CPU      0.06s WALL (     864 calls)

     Called by h_psi:
     add_vuspsi   :      0.29s CPU      0.26s WALL (   11791 calls)
     h_1psi       :     12.56s CPU     13.07s WALL (   10927 calls)

     General routines
     calbec       :      0.53s CPU      0.60s WALL (   22718 calls)
     fft          :      0.13s CPU      0.14s WALL (     144 calls)
     fftw         :     17.31s CPU     17.46s WALL (   33086 calls)
     davcio       :      0.00s CPU      0.00s WALL (      72 calls)

     Parallel routines
     fft_scatter  :      1.97s CPU      2.66s WALL (   33230 calls)

     PWSCF        :    21.66s CPU        22.57s WALL


   This run was terminated on:   9: 4:21   5Apr2016            

=------------------------------------------------------------------------------=
   JOB DONE.
=------------------------------------------------------------------------------=
