
     Program PWSCF v.5.3.0 (svn rev. 11974) starts on  5Apr2016 at  9: 6: 1 

     This program is part of the open-source Quantum ESPRESSO suite
     for quantum simulation of materials; please cite
         "P. Giannozzi et al., J. Phys.:Condens. Matter 21 395502 (2009);
          URL http://www.quantum-espresso.org", 
     in publications or presentations arising from this work. More details at
     http://www.quantum-espresso.org/quote

     Parallel version (MPI), running on     8 processors
     R & G space division:  proc/nbgrp/npool/nimage =       8
     Waiting for input...
     Reading input from standard input

     Current dimensions of program PWSCF are:
     Max number of different atomic species (ntypx) = 10
     Max number of k-points (npk) =  40000
     Max angular momentum in pseudopotentials (lmaxx) =  3

     Subspace diagonalization in iterative solution of the eigenvalue problem:
     a serial algorithm will be used


     Parallelization info
     --------------------
     sticks:   dense  smooth     PW     G-vecs:    dense   smooth      PW
     Min         230     230     64                 6548     6548     997
     Max         231     231     65                 6550     6550    1000
     Sum        1843    1843    517                52393    52393    7991



     bravais-lattice index     =            0
     lattice parameter (alat)  =       7.4829  a.u.
     unit-cell volume          =     296.2789 (a.u.)^3
     number of atoms/cell      =            2
     number of atomic types    =            1
     number of electrons       =         8.00
     number of Kohn-Sham states=            4
     kinetic-energy cutoff     =     120.0000  Ry
     charge density cutoff     =     480.0000  Ry
     convergence threshold     =      1.0E-12
     mixing beta               =       0.7000
     number of iterations used =            8  plain     mixing
     Exchange-correlation      =  SLA  PW   PBE  PBE ( 1  4  3  4 0 0)

     celldm(1)=   7.482934  celldm(2)=   0.000000  celldm(3)=   0.000000
     celldm(4)=   0.000000  celldm(5)=   0.000000  celldm(6)=   0.000000

     crystal axes: (cart. coord. in units of alat)
               a(1) = (   0.000000   0.707107   0.707107 )  
               a(2) = (   0.707107   0.000000   0.707107 )  
               a(3) = (   0.707107   0.707107   0.000000 )  

     reciprocal axes: (cart. coord. in units 2 pi/alat)
               b(1) = ( -0.707107  0.707107  0.707107 )  
               b(2) = (  0.707107 -0.707107  0.707107 )  
               b(3) = (  0.707107  0.707107 -0.707107 )  


     PseudoPot. # 1 for Si read from file:
     /home/junhao/espresso/espresso-5.3.0/pseudo/Si.pbe-rrkj.UPF
     MD5 check sum: cf7ab5690cd9a85b22c4813f7e365554
     Pseudo is Norm-conserving, Zval =  4.0
     Generated by new atomic code, or converted to UPF format
     Using radial grid of  883 points,  3 beta functions with: 
                l(1) =   0
                l(2) =   0
                l(3) =   1

     atomic species   valence    mass     pseudopotential
        Si             4.00    28.08550     Si( 1.00)

     24 Sym. Ops. (no inversion) found
          (note: 24 additional sym.ops. were found but ignored
           their fractional translations are incommensurate with FFT grid)


   Cartesian axes

     site n.     atom                  positions (alat units)
         1           Si  tau(   1) = (   0.0000000   0.0000000   0.0000000  )
         2           Si  tau(   2) = (   0.3535534   0.3535534   0.3535534  )

     number of k points=    72
                       cart. coord. in units 2pi/alat
        k(    1) = (   0.0000000   0.0000000   0.0000000), wk =   0.0011574
        k(    2) = (   0.0589256   0.0589256  -0.0589256), wk =   0.0092593
        k(    3) = (   0.1178511   0.1178511  -0.1178511), wk =   0.0092593
        k(    4) = (   0.1767767   0.1767767  -0.1767767), wk =   0.0092593
        k(    5) = (   0.2357023   0.2357023  -0.2357023), wk =   0.0092593
        k(    6) = (   0.2946278   0.2946278  -0.2946278), wk =   0.0092593
        k(    7) = (  -0.3535534  -0.3535534   0.3535534), wk =   0.0046296
        k(    8) = (   0.1178511   0.0000000   0.0000000), wk =   0.0069444
        k(    9) = (   0.1767767   0.0589256  -0.0589256), wk =   0.0277778
        k(   10) = (   0.2357023   0.1178511  -0.1178511), wk =   0.0277778
        k(   11) = (   0.2946278   0.1767767  -0.1767767), wk =   0.0277778
        k(   12) = (   0.3535534   0.2357023  -0.2357023), wk =   0.0277778
        k(   13) = (  -0.2946278  -0.4124790   0.4124790), wk =   0.0277778
        k(   14) = (  -0.2357023  -0.3535534   0.3535534), wk =   0.0277778
        k(   15) = (  -0.1767767  -0.2946278   0.2946278), wk =   0.0277778
        k(   16) = (  -0.1178511  -0.2357023   0.2357023), wk =   0.0277778
        k(   17) = (  -0.0589256  -0.1767767   0.1767767), wk =   0.0277778
        k(   18) = (  -0.0000000  -0.1178511   0.1178511), wk =   0.0138889
        k(   19) = (   0.2357023   0.0000000   0.0000000), wk =   0.0069444
        k(   20) = (   0.2946278   0.0589256  -0.0589256), wk =   0.0277778
        k(   21) = (   0.3535534   0.1178511  -0.1178511), wk =   0.0277778
        k(   22) = (   0.4124790   0.1767767  -0.1767767), wk =   0.0277778
        k(   23) = (  -0.2357023  -0.4714045   0.4714045), wk =   0.0277778
        k(   24) = (  -0.1767767  -0.4124790   0.4124790), wk =   0.0277778
        k(   25) = (  -0.1178511  -0.3535534   0.3535534), wk =   0.0277778
        k(   26) = (  -0.0589256  -0.2946278   0.2946278), wk =   0.0277778
        k(   27) = (   0.0000000  -0.2357023   0.2357023), wk =   0.0138889
        k(   28) = (   0.3535534   0.0000000   0.0000000), wk =   0.0069444
        k(   29) = (   0.4124790   0.0589256  -0.0589256), wk =   0.0277778
        k(   30) = (   0.4714045   0.1178511  -0.1178511), wk =   0.0277778
        k(   31) = (  -0.1767767  -0.5303301   0.5303301), wk =   0.0277778
        k(   32) = (  -0.1178511  -0.4714045   0.4714045), wk =   0.0277778
        k(   33) = (  -0.0589256  -0.4124790   0.4124790), wk =   0.0277778
        k(   34) = (   0.0000000  -0.3535534   0.3535534), wk =   0.0138889
        k(   35) = (   0.4714045   0.0000000   0.0000000), wk =   0.0069444
        k(   36) = (   0.5303301   0.0589256  -0.0589256), wk =   0.0277778
        k(   37) = (  -0.1178511  -0.5892557   0.5892557), wk =   0.0277778
        k(   38) = (  -0.0589256  -0.5303301   0.5303301), wk =   0.0277778
        k(   39) = (  -0.0000000  -0.4714045   0.4714045), wk =   0.0138889
        k(   40) = (   0.5892557   0.0000000   0.0000000), wk =   0.0069444
        k(   41) = (  -0.0589256  -0.6481812   0.6481812), wk =   0.0277778
        k(   42) = (   0.0000000  -0.5892557   0.5892557), wk =   0.0138889
        k(   43) = (  -0.7071068   0.0000000   0.0000000), wk =   0.0034722
        k(   44) = (   0.2357023   0.1178511  -0.0000000), wk =   0.0277778
        k(   45) = (   0.2946278   0.1767767  -0.0589256), wk =   0.0555556
        k(   46) = (   0.3535534   0.2357023  -0.1178511), wk =   0.0555556
        k(   47) = (  -0.2946278  -0.4124790   0.5303301), wk =   0.0555556
        k(   48) = (  -0.2357023  -0.3535534   0.4714045), wk =   0.0277778
        k(   49) = (   0.3535534   0.1178511   0.0000000), wk =   0.0277778
        k(   50) = (   0.4124790   0.1767767  -0.0589256), wk =   0.0555556
        k(   51) = (  -0.2357023  -0.4714045   0.5892557), wk =   0.0555556
        k(   52) = (  -0.1767767  -0.4124790   0.5303301), wk =   0.0555556
        k(   53) = (  -0.1178511  -0.3535534   0.4714045), wk =   0.0555556
        k(   54) = (  -0.0589256  -0.2946278   0.4124790), wk =   0.0555556
        k(   55) = (   0.0000000  -0.2357023   0.3535534), wk =   0.0277778
        k(   56) = (   0.4714045   0.1178511   0.0000000), wk =   0.0277778
        k(   57) = (  -0.1767767  -0.5303301   0.6481812), wk =   0.0555556
        k(   58) = (  -0.1178511  -0.4714045   0.5892557), wk =   0.0555556
        k(   59) = (  -0.0589256  -0.4124790   0.5303301), wk =   0.0555556
        k(   60) = (  -0.0000000  -0.3535534   0.4714045), wk =   0.0277778
        k(   61) = (  -0.1178511  -0.5892557   0.7071068), wk =   0.0277778
        k(   62) = (  -0.0589256  -0.5303301   0.6481812), wk =   0.0555556
        k(   63) = (  -0.0000000  -0.4714045   0.5892557), wk =   0.0277778
        k(   64) = (  -0.7071068   0.1178511   0.0000000), wk =   0.0138889
        k(   65) = (  -0.2357023  -0.4714045   0.7071068), wk =   0.0277778
        k(   66) = (  -0.1767767  -0.4124790   0.6481812), wk =   0.0555556
        k(   67) = (  -0.1178511  -0.3535534   0.5892557), wk =   0.0277778
        k(   68) = (  -0.1178511  -0.4714045   0.7071068), wk =   0.0277778
        k(   69) = (  -0.0589256  -0.4124790   0.6481812), wk =   0.0555556
        k(   70) = (   0.0000000  -0.3535534   0.5892557), wk =   0.0277778
        k(   71) = (  -0.7071068   0.2357023   0.0000000), wk =   0.0138889
        k(   72) = (  -0.7071068   0.3535534   0.0000000), wk =   0.0069444

     Dense  grid:    52393 G-vectors     FFT dimensions: (  54,  54,  54)

     Largest allocated arrays     est. size (Mb)     dimensions
        Kohn-Sham Wavefunctions         0.05 Mb     (     840,    4)
        NL pseudopotentials             0.13 Mb     (     840,   10)
        Each V/rho on FFT grid          0.31 Mb     (   20412)
        Each G-vector array             0.05 Mb     (    6550)
        G-vector shells                 0.00 Mb     (     453)
     Largest temporary arrays     est. size (Mb)     dimensions
        Each subspace H/S matrix        0.00 Mb     (       4,    4)
        Each <psi_i|beta_j> matrix      0.00 Mb     (      10,    4)
        Arrays for rho mixing           2.49 Mb     (   20412,    8)

     Initial potential from superposition of free atoms

     starting charge    7.99889, renormalised to    8.00000
     Starting wfc are    8 randomized atomic wfcs

     total cpu time spent up to now is        1.1 secs

     per-process dynamical memory:    16.0 Mb

     Self-consistent Calculation

     iteration #  1     ecut=   120.00 Ry     beta=0.70
     CG style diagonalization
     ethr =  1.00E-02,  avg # of iterations =  2.8

     Threshold (ethr) on eigenvalues was too large:
     Diagonalizing with lowered threshold

     CG style diagonalization
     ethr =  5.89E-04,  avg # of iterations =  2.3

     total cpu time spent up to now is        4.0 secs

     total energy              =     -15.73622196 Ry
     Harris-Foulkes estimate   =     -15.74627612 Ry
     estimated scf accuracy    <       0.04875882 Ry

     iteration #  2     ecut=   120.00 Ry     beta=0.70
     CG style diagonalization
     ethr =  6.09E-04,  avg # of iterations =  3.0

     total cpu time spent up to now is        5.6 secs

     total energy              =     -15.73779131 Ry
     Harris-Foulkes estimate   =     -15.73790448 Ry
     estimated scf accuracy    <       0.00286943 Ry

     iteration #  3     ecut=   120.00 Ry     beta=0.70
     CG style diagonalization
     ethr =  3.59E-05,  avg # of iterations =  3.6

     total cpu time spent up to now is        7.5 secs

     total energy              =     -15.73831915 Ry
     Harris-Foulkes estimate   =     -15.73835339 Ry
     estimated scf accuracy    <       0.00009117 Ry

     iteration #  4     ecut=   120.00 Ry     beta=0.70
     CG style diagonalization
     ethr =  1.14E-06,  avg # of iterations =  4.4

     total cpu time spent up to now is        9.7 secs

     total energy              =     -15.73836885 Ry
     Harris-Foulkes estimate   =     -15.73837275 Ry
     estimated scf accuracy    <       0.00001068 Ry

     iteration #  5     ecut=   120.00 Ry     beta=0.70
     CG style diagonalization
     ethr =  1.34E-07,  avg # of iterations =  3.7

     total cpu time spent up to now is       11.6 secs

     total energy              =     -15.73837069 Ry
     Harris-Foulkes estimate   =     -15.73837059 Ry
     estimated scf accuracy    <       0.00000007 Ry

     iteration #  6     ecut=   120.00 Ry     beta=0.70
     CG style diagonalization
     ethr =  9.12E-10,  avg # of iterations =  5.7

     total cpu time spent up to now is       14.4 secs

     total energy              =     -15.73837087 Ry
     Harris-Foulkes estimate   =     -15.73837093 Ry
     estimated scf accuracy    <       0.00000015 Ry

     iteration #  7     ecut=   120.00 Ry     beta=0.70
     CG style diagonalization
     ethr =  9.12E-10,  avg # of iterations =  4.0

     total cpu time spent up to now is       16.5 secs

     total energy              =     -15.73837088 Ry
     Harris-Foulkes estimate   =     -15.73837088 Ry
     estimated scf accuracy    <          4.5E-10 Ry

     iteration #  8     ecut=   120.00 Ry     beta=0.70
     CG style diagonalization
     ethr =  5.58E-12,  avg # of iterations =  5.3

     total cpu time spent up to now is       19.1 secs

     total energy              =     -15.73837088 Ry
     Harris-Foulkes estimate   =     -15.73837088 Ry
     estimated scf accuracy    <          7.5E-11 Ry

     iteration #  9     ecut=   120.00 Ry     beta=0.70
     CG style diagonalization
     ethr =  9.44E-13,  avg # of iterations =  3.1

     total cpu time spent up to now is       20.7 secs

     total energy              =     -15.73837088 Ry
     Harris-Foulkes estimate   =     -15.73837088 Ry
     estimated scf accuracy    <          3.7E-11 Ry

     iteration # 10     ecut=   120.00 Ry     beta=0.70
     CG style diagonalization
     ethr =  4.68E-13,  avg # of iterations =  3.6

     total cpu time spent up to now is       22.6 secs

     total energy              =     -15.73837088 Ry
     Harris-Foulkes estimate   =     -15.73837088 Ry
     estimated scf accuracy    <          1.2E-12 Ry

     iteration # 11     ecut=   120.00 Ry     beta=0.70
     CG style diagonalization
     ethr =  1.00E-13,  avg # of iterations =  3.1

     total cpu time spent up to now is       24.2 secs

     End of self-consistent calculation

          k = 0.0000 0.0000 0.0000 (  6615 PWs)   bands (ev):

    -5.9937   5.3057   5.3057   5.3057

          k = 0.0589 0.0589-0.0589 (  6555 PWs)   bands (ev):

    -5.9097   4.4493   5.1761   5.1761

          k = 0.1179 0.1179-0.1179 (  6573 PWs)   bands (ev):

    -5.6607   3.0035   4.8947   4.8947

          k = 0.1768 0.1768-0.1768 (  6555 PWs)   bands (ev):

    -5.2577   1.5602   4.6062   4.6062

          k = 0.2357 0.2357-0.2357 (  6573 PWs)   bands (ev):

    -4.7310   0.2578   4.3791   4.3791

          k = 0.2946 0.2946-0.2946 (  6550 PWs)   bands (ev):

    -4.1736  -0.7747   4.2380   4.2380

          k =-0.3536-0.3536 0.3536 (  6550 PWs)   bands (ev):

    -3.8816  -1.2264   4.1905   4.1905

          k = 0.1179 0.0000 0.0000 (  6559 PWs)   bands (ev):

    -5.8815   4.5478   4.9234   4.9234

          k = 0.1768 0.0589-0.0589 (  6569 PWs)   bands (ev):

    -5.6870   3.3998   4.5914   4.7346

          k = 0.2357 0.1179-0.1179 (  6562 PWs)   bands (ev):

    -5.3337   2.0050   4.3000   4.4296

          k = 0.2946 0.1768-0.1768 (  6568 PWs)   bands (ev):

    -4.8430   0.6774   4.0994   4.1008

          k = 0.3536 0.2357-0.2357 (  6558 PWs)   bands (ev):

    -4.2770  -0.4504   3.8244   4.0116

          k =-0.2946-0.4125 0.4125 (  6564 PWs)   bands (ev):

    -3.8440  -1.1425   3.6376   4.0344

          k =-0.2357-0.3536 0.3536 (  6568 PWs)   bands (ev):

    -3.9492  -0.9844   3.5558   4.1623

          k =-0.1768-0.2946 0.2946 (  6564 PWs)   bands (ev):

    -4.4677  -0.1033   3.5903   4.3812

          k =-0.1179-0.2357 0.2357 (  6575 PWs)   bands (ev):

    -5.0206   1.1054   3.7497   4.6669

          k =-0.0589-0.1768 0.1768 (  6561 PWs)   bands (ev):

    -5.4690   2.4541   4.0453   4.9711

          k =-0.0000-0.1179 0.1179 (  6575 PWs)   bands (ev):

    -5.7705   3.7203   4.5363   5.1903

          k = 0.2357 0.0000 0.0000 (  6571 PWs)   bands (ev):

    -5.5470   3.2145   4.2289   4.2289

          k = 0.2946 0.0589-0.0589 (  6555 PWs)   bands (ev):

    -5.2456   2.2200   3.8871   3.9197

          k = 0.3536 0.1179-0.1179 (  6575 PWs)   bands (ev):

    -4.7976   1.0259   3.4569   3.7143

          k = 0.4125 0.1768-0.1768 (  6585 PWs)   bands (ev):

    -4.2444  -0.0987   3.0462   3.6321

          k =-0.2357-0.4714 0.4714 (  6559 PWs)   bands (ev):

    -3.7239  -0.9395   2.7291   3.6766

          k =-0.1768-0.4125 0.4125 (  6565 PWs)   bands (ev):

    -3.6249  -1.0798   2.5387   3.8413

          k =-0.1179-0.3536 0.3536 (  6570 PWs)   bands (ev):

    -4.0671  -0.4009   2.5003   4.1085

          k =-0.0589-0.2946 0.2946 (  6561 PWs)   bands (ev):

    -4.6326   0.6388   2.6564   4.4431

          k = 0.0000-0.2357 0.2357 (  6563 PWs)   bands (ev):

    -5.1195   1.6892   3.1266   4.7746

          k = 0.3536 0.0000 0.0000 (  6606 PWs)   bands (ev):

    -4.9957   1.8075   3.5866   3.5866

          k = 0.4125 0.0589-0.0589 (  6560 PWs)   bands (ev):

    -4.5941   0.9676   3.1603   3.3575

          k = 0.4714 0.1179-0.1179 (  6582 PWs)   bands (ev):

    -4.0681   0.0304   2.5814   3.2556

          k =-0.1768-0.5303 0.5303 (  6578 PWs)   bands (ev):

    -3.5056  -0.8029   2.0783   3.2879

          k =-0.1179-0.4714 0.4714 (  6601 PWs)   bands (ev):

    -3.2231  -1.1662   1.7487   3.4503

          k =-0.0589-0.4125 0.4125 (  6579 PWs)   bands (ev):

    -3.5575  -0.7274   1.6527   3.7271

          k = 0.0000-0.3536 0.3536 (  6561 PWs)   bands (ev):

    -4.1194   0.0229   1.9053   4.0829

          k = 0.4714 0.0000 0.0000 (  6534 PWs)   bands (ev):

    -4.2381   0.4126   3.0978   3.0978

          k = 0.5303 0.0589-0.0589 (  6575 PWs)   bands (ev):

    -3.7471  -0.3152   2.6660   2.9647

          k =-0.1179-0.5893 0.5893 (  6583 PWs)   bands (ev):

    -3.1751  -1.0228   2.0192   2.9684

          k =-0.0589-0.5303 0.5303 (  6582 PWs)   bands (ev):

    -2.7622  -1.4620   1.5028   3.1080

          k =-0.0000-0.4714 0.4714 (  6605 PWs)   bands (ev):

    -3.0148  -1.1926   1.3209   3.3711

          k = 0.5893 0.0000 0.0000 (  6566 PWs)   bands (ev):

    -3.2905  -0.9292   2.7960   2.7960

          k =-0.0589-0.6482 0.6482 (  6582 PWs)   bands (ev):

    -2.7283  -1.5652   2.4191   2.7641

          k = 0.0000-0.5893 0.5893 (  6583 PWs)   bands (ev):

    -2.3268  -1.9298   1.8312   2.8710

          k =-0.7071 0.0000 0.0000 (  6526 PWs)   bands (ev):

    -2.1767  -2.1767   2.6942   2.6942

          k = 0.2357 0.1179-0.0000 (  6554 PWs)   bands (ev):

    -5.4394   2.6154   3.8346   4.6430

          k = 0.2946 0.1768-0.0589 (  6566 PWs)   bands (ev):

    -5.0384   1.4693   3.3291   4.3933

          k = 0.3536 0.2357-0.1179 (  6576 PWs)   bands (ev):

    -4.5131   0.2797   3.0585   4.0984

          k =-0.2946-0.4125 0.5303 (  6573 PWs)   bands (ev):

    -3.9538  -0.7092   2.9255   3.8783

          k =-0.2357-0.3536 0.4714 (  6578 PWs)   bands (ev):

    -3.6574  -1.1526   2.8867   3.7971

          k = 0.3536 0.1179 0.0000 (  6558 PWs)   bands (ev):

    -4.8948   1.4587   3.1950   3.8137

          k = 0.4125 0.1768-0.0589 (  6570 PWs)   bands (ev):

    -4.4070   0.4946   2.6909   3.5579

          k =-0.2357-0.4714 0.5893 (  6574 PWs)   bands (ev):

    -3.8399  -0.4577   2.3454   3.3718

          k =-0.1768-0.4125 0.5303 (  6575 PWs)   bands (ev):

    -3.4000  -1.0853   2.1143   3.3556

          k =-0.1179-0.3536 0.4714 (  6581 PWs)   bands (ev):

    -3.5200  -0.9193   2.0142   3.5096

          k =-0.0589-0.2946 0.4125 (  6574 PWs)   bands (ev):

    -4.0486  -0.1346   2.1026   3.7935

          k = 0.0000-0.2357 0.3536 (  6573 PWs)   bands (ev):

    -4.5972   0.7621   2.4989   4.1350

          k = 0.4714 0.1179 0.0000 (  6570 PWs)   bands (ev):

    -4.1492   0.2550   2.7253   3.1124

          k =-0.1768-0.5303 0.6482 (  6584 PWs)   bands (ev):

    -3.5967  -0.5154   2.1951   2.9195

          k =-0.1179-0.4714 0.5893 (  6592 PWs)   bands (ev):

    -3.0686  -1.1597   1.7242   2.9253

          k =-0.0589-0.4125 0.5303 (  6592 PWs)   bands (ev):

    -3.0113  -1.2178   1.4675   3.1038

          k =-0.0000-0.3536 0.4714 (  6583 PWs)   bands (ev):

    -3.4945  -0.6783   1.5493   3.4151

          k =-0.1179-0.5893 0.7071 (  6587 PWs)   bands (ev):

    -3.2226  -0.9669   2.4647   2.6467

          k =-0.0589-0.5303 0.6482 (  6588 PWs)   bands (ev):

    -2.6523  -1.5615   1.9143   2.6059

          k =-0.0000-0.4714 0.5893 (  6576 PWs)   bands (ev):

    -2.5281  -1.6544   1.4732   2.7847

          k =-0.7071 0.1179 0.0000 (  6596 PWs)   bands (ev):

    -2.1464  -2.1464   2.4336   2.4336

          k =-0.2357-0.4714 0.7071 (  6578 PWs)   bands (ev):

    -3.8914  -0.1564   2.0703   3.2251

          k =-0.1768-0.4125 0.6482 (  6584 PWs)   bands (ev):

    -3.3270  -0.8612   1.7488   2.9264

          k =-0.1179-0.3536 0.5893 (  6596 PWs)   bands (ev):

    -3.0077  -1.2422   1.6577   2.8116

          k =-0.1179-0.4714 0.7071 (  6600 PWs)   bands (ev):

    -3.0353  -1.1037   1.8944   2.4639

          k =-0.0589-0.4125 0.6482 (  6607 PWs)   bands (ev):

    -2.5659  -1.5690   1.6189   2.3243

          k = 0.0000-0.3536 0.5893 (  6607 PWs)   bands (ev):

    -2.7791  -1.3529   1.5062   2.5260

          k =-0.7071 0.2357 0.0000 (  6614 PWs)   bands (ev):

    -2.0822  -2.0822   2.0140   2.0140

          k =-0.7071 0.3536 0.0000 (  6620 PWs)   bands (ev):

    -2.0480  -2.0480   1.8340   1.8340

     highest occupied level (ev):     5.3057

!    total energy              =     -15.73837088 Ry
     Harris-Foulkes estimate   =     -15.73837088 Ry
     estimated scf accuracy    <          4.8E-14 Ry

     The total energy is the sum of the following terms:

     one-electron contribution =       4.09269961 Ry
     hartree contribution      =       1.17509321 Ry
     xc contribution           =      -4.71718798 Ry
     ewald contribution        =     -16.28897573 Ry

     convergence has been achieved in  11 iterations

     Writing output data file si.save

     init_run     :      1.04s CPU      1.12s WALL (       1 calls)
     electrons    :     21.55s CPU     23.04s WALL (       1 calls)

     Called by init_run:
     wfcinit      :      0.89s CPU      0.96s WALL (       1 calls)
     potinit      :      0.05s CPU      0.05s WALL (       1 calls)

     Called by electrons:
     c_bands      :     18.55s CPU     19.80s WALL (      12 calls)
     sum_band     :      2.59s CPU      2.81s WALL (      12 calls)
     v_of_rho     :      0.34s CPU      0.35s WALL (      12 calls)
     mix_rho      :      0.07s CPU      0.08s WALL (      12 calls)

     Called by c_bands:
     init_us_2    :      0.64s CPU      0.57s WALL (    1800 calls)
     ccgdiagg     :     14.26s CPU     15.23s WALL (     864 calls)
     wfcrot       :      4.67s CPU      4.99s WALL (     792 calls)

     Called by sum_band:

     Called by *cgdiagg:
     h_psi        :     17.54s CPU     18.66s WALL (   10756 calls)
     cdiaghg      :      0.05s CPU      0.05s WALL (     792 calls)

     Called by h_psi:
     add_vuspsi   :      0.27s CPU      0.27s WALL (   10756 calls)
     h_1psi       :     13.09s CPU     13.88s WALL (    9964 calls)

     General routines
     calbec       :      0.74s CPU      0.77s WALL (   20720 calls)
     fft          :      0.14s CPU      0.15s WALL (     133 calls)
     fftw         :     17.84s CPU     18.49s WALL (   30296 calls)
     davcio       :      0.00s CPU      0.00s WALL (      72 calls)

     Parallel routines
     fft_scatter  :      2.36s CPU      3.50s WALL (   30429 calls)

     PWSCF        :    22.83s CPU        24.40s WALL


   This run was terminated on:   9: 6:26   5Apr2016            

=------------------------------------------------------------------------------=
   JOB DONE.
=------------------------------------------------------------------------------=
