
     Program PWSCF v.5.3.0 (svn rev. 11974) starts on  5Apr2016 at  9:44:22 

     This program is part of the open-source Quantum ESPRESSO suite
     for quantum simulation of materials; please cite
         "P. Giannozzi et al., J. Phys.:Condens. Matter 21 395502 (2009);
          URL http://www.quantum-espresso.org", 
     in publications or presentations arising from this work. More details at
     http://www.quantum-espresso.org/quote

     Parallel version (MPI), running on     8 processors
     R & G space division:  proc/nbgrp/npool/nimage =       8
     Waiting for input...
     Reading input from standard input

     Current dimensions of program PWSCF are:
     Max number of different atomic species (ntypx) = 10
     Max number of k-points (npk) =  40000
     Max angular momentum in pseudopotentials (lmaxx) =  3

     Subspace diagonalization in iterative solution of the eigenvalue problem:
     a serial algorithm will be used


     Parallelization info
     --------------------
     sticks:   dense  smooth     PW     G-vecs:    dense   smooth      PW
     Min        1704    1704    447               149810   149810   20241
     Max        1705    1705    448               149813   149813   20244
     Sum       13637   13637   3577              1198487  1198487  161931



     bravais-lattice index     =            0
     lattice parameter (alat)  =      18.8973  a.u.
     unit-cell volume          =    6748.3346 (a.u.)^3
     number of atoms/cell      =            1
     number of atomic types    =            1
     number of electrons       =         4.00
     number of Kohn-Sham states=            2
     kinetic-energy cutoff     =     120.0000  Ry
     charge density cutoff     =     480.0000  Ry
     convergence threshold     =      1.0E-12
     mixing beta               =       0.7000
     number of iterations used =            8  plain     mixing
     Exchange-correlation      =  SLA  PW   PBE  PBE ( 1  4  3  4 0 0)

     celldm(1)=  18.897261  celldm(2)=   0.000000  celldm(3)=   0.000000
     celldm(4)=   0.000000  celldm(5)=   0.000000  celldm(6)=   0.000000

     crystal axes: (cart. coord. in units of alat)
               a(1) = (   1.000000   0.000000   0.000000 )  
               a(2) = (   0.000000   1.000000   0.000000 )  
               a(3) = (   0.000000   0.000000   1.000000 )  

     reciprocal axes: (cart. coord. in units 2 pi/alat)
               b(1) = (  1.000000  0.000000  0.000000 )  
               b(2) = (  0.000000  1.000000  0.000000 )  
               b(3) = (  0.000000  0.000000  1.000000 )  


     PseudoPot. # 1 for Si read from file:
     /home/junhao/espresso/espresso-5.3.0/pseudo/Si.pbe-rrkj.UPF
     MD5 check sum: cf7ab5690cd9a85b22c4813f7e365554
     Pseudo is Norm-conserving, Zval =  4.0
     Generated by new atomic code, or converted to UPF format
     Using radial grid of  883 points,  3 beta functions with: 
                l(1) =   0
                l(2) =   0
                l(3) =   1

     atomic species   valence    mass     pseudopotential
        Si             4.00    28.08550     Si( 1.00)

     48 Sym. Ops., with inversion, found



   Cartesian axes

     site n.     atom                  positions (alat units)
         1           Si  tau(   1) = (   0.0000000   0.0000000   0.0000000  )

     number of k points=    84
                       cart. coord. in units 2pi/alat
        k(    1) = (   0.0000000   0.0000000   0.0000000), wk =   0.0011574
        k(    2) = (   0.0000000   0.0000000   0.0833333), wk =   0.0069444
        k(    3) = (   0.0000000   0.0000000   0.1666667), wk =   0.0069444
        k(    4) = (   0.0000000   0.0000000   0.2500000), wk =   0.0069444
        k(    5) = (   0.0000000   0.0000000   0.3333333), wk =   0.0069444
        k(    6) = (   0.0000000   0.0000000   0.4166667), wk =   0.0069444
        k(    7) = (   0.0000000   0.0000000  -0.5000000), wk =   0.0034722
        k(    8) = (   0.0000000   0.0833333   0.0833333), wk =   0.0138889
        k(    9) = (   0.0000000   0.0833333   0.1666667), wk =   0.0277778
        k(   10) = (   0.0000000   0.0833333   0.2500000), wk =   0.0277778
        k(   11) = (   0.0000000   0.0833333   0.3333333), wk =   0.0277778
        k(   12) = (   0.0000000   0.0833333   0.4166667), wk =   0.0277778
        k(   13) = (   0.0000000   0.0833333  -0.5000000), wk =   0.0138889
        k(   14) = (   0.0000000   0.1666667   0.1666667), wk =   0.0138889
        k(   15) = (   0.0000000   0.1666667   0.2500000), wk =   0.0277778
        k(   16) = (   0.0000000   0.1666667   0.3333333), wk =   0.0277778
        k(   17) = (   0.0000000   0.1666667   0.4166667), wk =   0.0277778
        k(   18) = (   0.0000000   0.1666667  -0.5000000), wk =   0.0138889
        k(   19) = (   0.0000000   0.2500000   0.2500000), wk =   0.0138889
        k(   20) = (   0.0000000   0.2500000   0.3333333), wk =   0.0277778
        k(   21) = (   0.0000000   0.2500000   0.4166667), wk =   0.0277778
        k(   22) = (   0.0000000   0.2500000  -0.5000000), wk =   0.0138889
        k(   23) = (   0.0000000   0.3333333   0.3333333), wk =   0.0138889
        k(   24) = (   0.0000000   0.3333333   0.4166667), wk =   0.0277778
        k(   25) = (   0.0000000   0.3333333  -0.5000000), wk =   0.0138889
        k(   26) = (   0.0000000   0.4166667   0.4166667), wk =   0.0138889
        k(   27) = (   0.0000000   0.4166667  -0.5000000), wk =   0.0138889
        k(   28) = (   0.0000000  -0.5000000  -0.5000000), wk =   0.0034722
        k(   29) = (   0.0833333   0.0833333   0.0833333), wk =   0.0092593
        k(   30) = (   0.0833333   0.0833333   0.1666667), wk =   0.0277778
        k(   31) = (   0.0833333   0.0833333   0.2500000), wk =   0.0277778
        k(   32) = (   0.0833333   0.0833333   0.3333333), wk =   0.0277778
        k(   33) = (   0.0833333   0.0833333   0.4166667), wk =   0.0277778
        k(   34) = (   0.0833333   0.0833333  -0.5000000), wk =   0.0138889
        k(   35) = (   0.0833333   0.1666667   0.1666667), wk =   0.0277778
        k(   36) = (   0.0833333   0.1666667   0.2500000), wk =   0.0555556
        k(   37) = (   0.0833333   0.1666667   0.3333333), wk =   0.0555556
        k(   38) = (   0.0833333   0.1666667   0.4166667), wk =   0.0555556
        k(   39) = (   0.0833333   0.1666667  -0.5000000), wk =   0.0277778
        k(   40) = (   0.0833333   0.2500000   0.2500000), wk =   0.0277778
        k(   41) = (   0.0833333   0.2500000   0.3333333), wk =   0.0555556
        k(   42) = (   0.0833333   0.2500000   0.4166667), wk =   0.0555556
        k(   43) = (   0.0833333   0.2500000  -0.5000000), wk =   0.0277778
        k(   44) = (   0.0833333   0.3333333   0.3333333), wk =   0.0277778
        k(   45) = (   0.0833333   0.3333333   0.4166667), wk =   0.0555556
        k(   46) = (   0.0833333   0.3333333  -0.5000000), wk =   0.0277778
        k(   47) = (   0.0833333   0.4166667   0.4166667), wk =   0.0277778
        k(   48) = (   0.0833333   0.4166667  -0.5000000), wk =   0.0277778
        k(   49) = (   0.0833333  -0.5000000  -0.5000000), wk =   0.0069444
        k(   50) = (   0.1666667   0.1666667   0.1666667), wk =   0.0092593
        k(   51) = (   0.1666667   0.1666667   0.2500000), wk =   0.0277778
        k(   52) = (   0.1666667   0.1666667   0.3333333), wk =   0.0277778
        k(   53) = (   0.1666667   0.1666667   0.4166667), wk =   0.0277778
        k(   54) = (   0.1666667   0.1666667  -0.5000000), wk =   0.0138889
        k(   55) = (   0.1666667   0.2500000   0.2500000), wk =   0.0277778
        k(   56) = (   0.1666667   0.2500000   0.3333333), wk =   0.0555556
        k(   57) = (   0.1666667   0.2500000   0.4166667), wk =   0.0555556
        k(   58) = (   0.1666667   0.2500000  -0.5000000), wk =   0.0277778
        k(   59) = (   0.1666667   0.3333333   0.3333333), wk =   0.0277778
        k(   60) = (   0.1666667   0.3333333   0.4166667), wk =   0.0555556
        k(   61) = (   0.1666667   0.3333333  -0.5000000), wk =   0.0277778
        k(   62) = (   0.1666667   0.4166667   0.4166667), wk =   0.0277778
        k(   63) = (   0.1666667   0.4166667  -0.5000000), wk =   0.0277778
        k(   64) = (   0.1666667  -0.5000000  -0.5000000), wk =   0.0069444
        k(   65) = (   0.2500000   0.2500000   0.2500000), wk =   0.0092593
        k(   66) = (   0.2500000   0.2500000   0.3333333), wk =   0.0277778
        k(   67) = (   0.2500000   0.2500000   0.4166667), wk =   0.0277778
        k(   68) = (   0.2500000   0.2500000  -0.5000000), wk =   0.0138889
        k(   69) = (   0.2500000   0.3333333   0.3333333), wk =   0.0277778
        k(   70) = (   0.2500000   0.3333333   0.4166667), wk =   0.0555556
        k(   71) = (   0.2500000   0.3333333  -0.5000000), wk =   0.0277778
        k(   72) = (   0.2500000   0.4166667   0.4166667), wk =   0.0277778
        k(   73) = (   0.2500000   0.4166667  -0.5000000), wk =   0.0277778
        k(   74) = (   0.2500000  -0.5000000  -0.5000000), wk =   0.0069444
        k(   75) = (   0.3333333   0.3333333   0.3333333), wk =   0.0092593
        k(   76) = (   0.3333333   0.3333333   0.4166667), wk =   0.0277778
        k(   77) = (   0.3333333   0.3333333  -0.5000000), wk =   0.0138889
        k(   78) = (   0.3333333   0.4166667   0.4166667), wk =   0.0277778
        k(   79) = (   0.3333333   0.4166667  -0.5000000), wk =   0.0277778
        k(   80) = (   0.3333333  -0.5000000  -0.5000000), wk =   0.0069444
        k(   81) = (   0.4166667   0.4166667   0.4166667), wk =   0.0092593
        k(   82) = (   0.4166667   0.4166667  -0.5000000), wk =   0.0138889
        k(   83) = (   0.4166667  -0.5000000  -0.5000000), wk =   0.0069444
        k(   84) = (  -0.5000000  -0.5000000  -0.5000000), wk =   0.0011574

     Dense  grid:  1198487 G-vectors     FFT dimensions: ( 135, 135, 135)

     Largest allocated arrays     est. size (Mb)     dimensions
        Kohn-Sham Wavefunctions         0.57 Mb     (   18748,    2)
        NL pseudopotentials             1.43 Mb     (   18748,    5)
        Each V/rho on FFT grid          4.73 Mb     (  309825)
        Each G-vector array             1.14 Mb     (  149813)
        G-vector shells                 0.03 Mb     (    3605)
     Largest temporary arrays     est. size (Mb)     dimensions
        Each subspace H/S matrix        0.00 Mb     (       2,    2)
        Each <psi_i|beta_j> matrix      0.00 Mb     (       5,    2)
        Arrays for rho mixing          37.82 Mb     (  309825,    8)

     Initial potential from superposition of free atoms

     starting charge    3.99945, renormalised to    4.00000

     negative rho (up, down):  7.601E-05 0.000E+00
     Starting wfc are    4 randomized atomic wfcs

     total cpu time spent up to now is       25.7 secs

     per-process dynamical memory:   117.3 Mb

     Self-consistent Calculation

     iteration #  1     ecut=   120.00 Ry     beta=0.70
     CG style diagonalization
     ethr =  1.00E-02,  avg # of iterations =  2.0

     Threshold (ethr) on eigenvalues was too large:
     Diagonalizing with lowered threshold

     CG style diagonalization
     c_bands:  1 eigenvalues not converged
     c_bands:  1 eigenvalues not converged
     c_bands:  1 eigenvalues not converged
     c_bands:  1 eigenvalues not converged
     c_bands:  1 eigenvalues not converged
     c_bands:  1 eigenvalues not converged
     c_bands:  1 eigenvalues not converged
     c_bands:  1 eigenvalues not converged
     c_bands:  1 eigenvalues not converged
     c_bands:  1 eigenvalues not converged
     c_bands:  1 eigenvalues not converged
     c_bands:  1 eigenvalues not converged
     c_bands:  1 eigenvalues not converged
     c_bands:  1 eigenvalues not converged
     c_bands:  1 eigenvalues not converged
     c_bands:  1 eigenvalues not converged
     c_bands:  1 eigenvalues not converged
     c_bands:  1 eigenvalues not converged
     c_bands:  1 eigenvalues not converged
     c_bands:  1 eigenvalues not converged
     c_bands:  1 eigenvalues not converged
     c_bands:  1 eigenvalues not converged
     c_bands:  1 eigenvalues not converged
     c_bands:  1 eigenvalues not converged
     c_bands:  1 eigenvalues not converged
     c_bands:  1 eigenvalues not converged
     c_bands:  1 eigenvalues not converged
     c_bands:  1 eigenvalues not converged
     c_bands:  1 eigenvalues not converged
     ethr =  1.94E-09,  avg # of iterations = 12.6

     negative rho (up, down):  4.683E-07 0.000E+00

     total cpu time spent up to now is      205.3 secs

     total energy              =      -7.47451453 Ry
     Harris-Foulkes estimate   =      -7.47451085 Ry
     estimated scf accuracy    <       0.00000156 Ry

     iteration #  2     ecut=   120.00 Ry     beta=0.70
     CG style diagonalization
     ethr =  3.91E-08,  avg # of iterations =  3.5

     total cpu time spent up to now is      252.6 secs

     total energy              =      -7.47451429 Ry
     Harris-Foulkes estimate   =      -7.47451484 Ry
     estimated scf accuracy    <       0.00000007 Ry

     iteration #  3     ecut=   120.00 Ry     beta=0.70
     CG style diagonalization
     c_bands:  1 eigenvalues not converged
     ethr =  1.68E-09,  avg # of iterations =  4.7

     total cpu time spent up to now is      312.9 secs

     total energy              =      -7.47451635 Ry
     Harris-Foulkes estimate   =      -7.47451692 Ry
     estimated scf accuracy    <          7.0E-09 Ry

     iteration #  4     ecut=   120.00 Ry     beta=0.70
     CG style diagonalization
     c_bands:  1 eigenvalues not converged
     c_bands:  1 eigenvalues not converged
     c_bands:  1 eigenvalues not converged
     c_bands:  1 eigenvalues not converged
     c_bands:  1 eigenvalues not converged
     c_bands:  1 eigenvalues not converged
     c_bands:  1 eigenvalues not converged
     c_bands:  1 eigenvalues not converged
     ethr =  1.74E-10,  avg # of iterations =  6.7

     total cpu time spent up to now is      395.6 secs

     total energy              =      -7.47451849 Ry
     Harris-Foulkes estimate   =      -7.47451849 Ry
     estimated scf accuracy    <          2.4E-10 Ry

     iteration #  5     ecut=   120.00 Ry     beta=0.70
     CG style diagonalization
     c_bands:  1 eigenvalues not converged
     c_bands:  1 eigenvalues not converged
     c_bands:  1 eigenvalues not converged
     c_bands:  1 eigenvalues not converged
     c_bands:  1 eigenvalues not converged
     c_bands:  1 eigenvalues not converged
     c_bands:  1 eigenvalues not converged
     c_bands:  1 eigenvalues not converged
     c_bands:  1 eigenvalues not converged
     c_bands:  1 eigenvalues not converged
     c_bands:  1 eigenvalues not converged
     c_bands:  1 eigenvalues not converged
     c_bands:  1 eigenvalues not converged
     c_bands:  1 eigenvalues not converged
     c_bands:  1 eigenvalues not converged
     c_bands:  1 eigenvalues not converged
     c_bands:  1 eigenvalues not converged
     c_bands:  1 eigenvalues not converged
     c_bands:  1 eigenvalues not converged
     ethr =  5.94E-12,  avg # of iterations =  8.5

     total cpu time spent up to now is      498.8 secs

     total energy              =      -7.47451985 Ry
     Harris-Foulkes estimate   =      -7.47451985 Ry
     estimated scf accuracy    <          7.9E-11 Ry

     iteration #  6     ecut=   120.00 Ry     beta=0.70
     CG style diagonalization
     c_bands:  1 eigenvalues not converged
     c_bands:  1 eigenvalues not converged
     c_bands:  1 eigenvalues not converged
     c_bands:  1 eigenvalues not converged
     c_bands:  1 eigenvalues not converged
     c_bands:  1 eigenvalues not converged
     c_bands:  1 eigenvalues not converged
     c_bands:  1 eigenvalues not converged
     c_bands:  1 eigenvalues not converged
     c_bands:  1 eigenvalues not converged
     c_bands:  1 eigenvalues not converged
     c_bands:  1 eigenvalues not converged
     ethr =  1.96E-12,  avg # of iterations =  6.2

     total cpu time spent up to now is      576.1 secs

     total energy              =      -7.47452001 Ry
     Harris-Foulkes estimate   =      -7.47452001 Ry
     estimated scf accuracy    <          9.1E-12 Ry

     iteration #  7     ecut=   120.00 Ry     beta=0.70
     CG style diagonalization
     c_bands:  1 eigenvalues not converged
     c_bands:  1 eigenvalues not converged
     c_bands:  1 eigenvalues not converged
     c_bands:  1 eigenvalues not converged
     c_bands:  1 eigenvalues not converged
     c_bands:  1 eigenvalues not converged
     c_bands:  1 eigenvalues not converged
     c_bands:  1 eigenvalues not converged
     c_bands:  1 eigenvalues not converged
     c_bands:  1 eigenvalues not converged
     c_bands:  1 eigenvalues not converged
     c_bands:  1 eigenvalues not converged
     c_bands:  1 eigenvalues not converged
     c_bands:  1 eigenvalues not converged
     c_bands:  1 eigenvalues not converged
     c_bands:  1 eigenvalues not converged
     c_bands:  1 eigenvalues not converged
     c_bands:  1 eigenvalues not converged
     c_bands:  1 eigenvalues not converged
     c_bands:  1 eigenvalues not converged
     c_bands:  1 eigenvalues not converged
     ethr =  2.27E-13,  avg # of iterations =  8.0

     total cpu time spent up to now is      672.9 secs

     End of self-consistent calculation

          k = 0.0000 0.0000 0.0000 (149781 PWs)   bands (ev):

   -10.5234  -3.8423

          k = 0.0000 0.0000 0.0833 (149738 PWs)   bands (ev):

   -10.5234  -3.8426

          k = 0.0000 0.0000 0.1667 (149818 PWs)   bands (ev):

   -10.5234  -3.8435

          k = 0.0000 0.0000 0.2500 (149702 PWs)   bands (ev):

   -10.5234  -3.8446

          k = 0.0000 0.0000 0.3333 (149878 PWs)   bands (ev):

   -10.5234  -3.8457

          k = 0.0000 0.0000 0.4167 (149766 PWs)   bands (ev):

   -10.5234  -3.8465

          k = 0.0000 0.0000-0.5000 (149842 PWs)   bands (ev):

   -10.5234  -3.8468

          k = 0.0000 0.0833 0.0833 (149801 PWs)   bands (ev):

   -10.5234  -3.8426

          k = 0.0000 0.0833 0.1667 (149741 PWs)   bands (ev):

   -10.5234  -3.8434

          k = 0.0000 0.0833 0.2500 (149801 PWs)   bands (ev):

   -10.5234  -3.8446

          k = 0.0000 0.0833 0.3333 (149787 PWs)   bands (ev):

   -10.5234  -3.8457

          k = 0.0000 0.0833 0.4167 (149767 PWs)   bands (ev):

   -10.5234  -3.8465

          k = 0.0000 0.0833-0.5000 (149768 PWs)   bands (ev):

   -10.5234  -3.8468

          k = 0.0000 0.1667 0.1667 (149833 PWs)   bands (ev):

   -10.5234  -3.8434

          k = 0.0000 0.1667 0.2500 (149792 PWs)   bands (ev):

   -10.5234  -3.8445

          k = 0.0000 0.1667 0.3333 (149799 PWs)   bands (ev):

   -10.5234  -3.8456

          k = 0.0000 0.1667 0.4167 (149777 PWs)   bands (ev):

   -10.5234  -3.8464

          k = 0.0000 0.1667-0.5000 (149770 PWs)   bands (ev):

   -10.5234  -3.8467

          k = 0.0000 0.2500 0.2500 (149749 PWs)   bands (ev):

   -10.5234  -3.8444

          k = 0.0000 0.2500 0.3333 (149743 PWs)   bands (ev):

   -10.5234  -3.8455

          k = 0.0000 0.2500 0.4167 (149806 PWs)   bands (ev):

   -10.5234  -3.8463

          k = 0.0000 0.2500-0.5000 (149858 PWs)   bands (ev):

   -10.5234  -3.8466

          k = 0.0000 0.3333 0.3333 (149750 PWs)   bands (ev):

   -10.5234  -3.8454

          k = 0.0000 0.3333 0.4167 (149773 PWs)   bands (ev):

   -10.5234  -3.8462

          k = 0.0000 0.3333-0.5000 (149792 PWs)   bands (ev):

   -10.5234  -3.8465

          k = 0.0000 0.4167 0.4167 (149742 PWs)   bands (ev):

   -10.5234  -3.8461

          k = 0.0000 0.4167-0.5000 (149792 PWs)   bands (ev):

   -10.5234  -3.8464

          k = 0.0000-0.5000-0.5000 (149708 PWs)   bands (ev):

   -10.5233  -3.8464

          k = 0.0833 0.0833 0.0833 (149783 PWs)   bands (ev):

   -10.5234  -3.8426

          k = 0.0833 0.0833 0.1667 (149813 PWs)   bands (ev):

   -10.5234  -3.8434

          k = 0.0833 0.0833 0.2500 (149788 PWs)   bands (ev):

   -10.5234  -3.8445

          k = 0.0833 0.0833 0.3333 (149790 PWs)   bands (ev):

   -10.5234  -3.8457

          k = 0.0833 0.0833 0.4167 (149757 PWs)   bands (ev):

   -10.5234  -3.8465

          k = 0.0833 0.0833-0.5000 (149740 PWs)   bands (ev):

   -10.5234  -3.8468

          k = 0.0833 0.1667 0.1667 (149769 PWs)   bands (ev):

   -10.5234  -3.8434

          k = 0.0833 0.1667 0.2500 (149766 PWs)   bands (ev):

   -10.5234  -3.8445

          k = 0.0833 0.1667 0.3333 (149777 PWs)   bands (ev):

   -10.5234  -3.8456

          k = 0.0833 0.1667 0.4167 (149825 PWs)   bands (ev):

   -10.5234  -3.8464

          k = 0.0833 0.1667-0.5000 (149820 PWs)   bands (ev):

   -10.5234  -3.8467

          k = 0.0833 0.2500 0.2500 (149789 PWs)   bands (ev):

   -10.5234  -3.8444

          k = 0.0833 0.2500 0.3333 (149806 PWs)   bands (ev):

   -10.5234  -3.8455

          k = 0.0833 0.2500 0.4167 (149805 PWs)   bands (ev):

   -10.5234  -3.8463

          k = 0.0833 0.2500-0.5000 (149780 PWs)   bands (ev):

   -10.5234  -3.8466

          k = 0.0833 0.3333 0.3333 (149775 PWs)   bands (ev):

   -10.5234  -3.8454

          k = 0.0833 0.3333 0.4167 (149790 PWs)   bands (ev):

   -10.5234  -3.8462

          k = 0.0833 0.3333-0.5000 (149766 PWs)   bands (ev):

   -10.5234  -3.8465

          k = 0.0833 0.4167 0.4167 (149758 PWs)   bands (ev):

   -10.5234  -3.8461

          k = 0.0833 0.4167-0.5000 (149766 PWs)   bands (ev):

   -10.5233  -3.8464

          k = 0.0833-0.5000-0.5000 (149768 PWs)   bands (ev):

   -10.5233  -3.8464

          k = 0.1667 0.1667 0.1667 (149873 PWs)   bands (ev):

   -10.5234  -3.8433

          k = 0.1667 0.1667 0.2500 (149782 PWs)   bands (ev):

   -10.5234  -3.8444

          k = 0.1667 0.1667 0.3333 (149779 PWs)   bands (ev):

   -10.5234  -3.8455

          k = 0.1667 0.1667 0.4167 (149797 PWs)   bands (ev):

   -10.5234  -3.8463

          k = 0.1667 0.1667-0.5000 (149808 PWs)   bands (ev):

   -10.5234  -3.8466

          k = 0.1667 0.2500 0.2500 (149761 PWs)   bands (ev):

   -10.5234  -3.8443

          k = 0.1667 0.2500 0.3333 (149777 PWs)   bands (ev):

   -10.5234  -3.8454

          k = 0.1667 0.2500 0.4167 (149789 PWs)   bands (ev):

   -10.5234  -3.8462

          k = 0.1667 0.2500-0.5000 (149806 PWs)   bands (ev):

   -10.5234  -3.8465

          k = 0.1667 0.3333 0.3333 (149807 PWs)   bands (ev):

   -10.5234  -3.8453

          k = 0.1667 0.3333 0.4167 (149806 PWs)   bands (ev):

   -10.5234  -3.8461

          k = 0.1667 0.3333-0.5000 (149836 PWs)   bands (ev):

   -10.5233  -3.8464

          k = 0.1667 0.4167 0.4167 (149842 PWs)   bands (ev):

   -10.5233  -3.8460

          k = 0.1667 0.4167-0.5000 (149814 PWs)   bands (ev):

   -10.5233  -3.8463

          k = 0.1667-0.5000-0.5000 (149720 PWs)   bands (ev):

   -10.5233  -3.8463

          k = 0.2500 0.2500 0.2500 (149777 PWs)   bands (ev):

   -10.5234  -3.8442

          k = 0.2500 0.2500 0.3333 (149843 PWs)   bands (ev):

   -10.5234  -3.8453

          k = 0.2500 0.2500 0.4167 (149839 PWs)   bands (ev):

   -10.5234  -3.8461

          k = 0.2500 0.2500-0.5000 (149926 PWs)   bands (ev):

   -10.5233  -3.8464

          k = 0.2500 0.3333 0.3333 (149856 PWs)   bands (ev):

   -10.5233  -3.8452

          k = 0.2500 0.3333 0.4167 (149869 PWs)   bands (ev):

   -10.5233  -3.8460

          k = 0.2500 0.3333-0.5000 (149880 PWs)   bands (ev):

   -10.5233  -3.8463

          k = 0.2500 0.4167 0.4167 (149879 PWs)   bands (ev):

   -10.5233  -3.8459

          k = 0.2500 0.4167-0.5000 (149822 PWs)   bands (ev):

   -10.5233  -3.8462

          k = 0.2500-0.5000-0.5000 (149768 PWs)   bands (ev):

   -10.5233  -3.8462

          k = 0.3333 0.3333 0.3333 (149780 PWs)   bands (ev):

   -10.5233  -3.8451

          k = 0.3333 0.3333 0.4167 (149857 PWs)   bands (ev):

   -10.5233  -3.8459

          k = 0.3333 0.3333-0.5000 (149876 PWs)   bands (ev):

   -10.5233  -3.8462

          k = 0.3333 0.4167 0.4167 (149903 PWs)   bands (ev):

   -10.5233  -3.8458

          k = 0.3333 0.4167-0.5000 (149854 PWs)   bands (ev):

   -10.5233  -3.8461

          k = 0.3333-0.5000-0.5000 (149884 PWs)   bands (ev):

   -10.5233  -3.8461

          k = 0.4167 0.4167 0.4167 (149900 PWs)   bands (ev):

   -10.5233  -3.8457

          k = 0.4167 0.4167-0.5000 (149884 PWs)   bands (ev):

   -10.5233  -3.8460

          k = 0.4167-0.5000-0.5000 (149880 PWs)   bands (ev):

   -10.5233  -3.8460

          k =-0.5000-0.5000-0.5000 (150056 PWs)   bands (ev):

   -10.5233  -3.8460

     highest occupied level (ev):    -3.8423

!    total energy              =      -7.47452016 Ry
     Harris-Foulkes estimate   =      -7.47452015 Ry
     estimated scf accuracy    <          4.6E-13 Ry

     The total energy is the sum of the following terms:

     one-electron contribution =      -6.63863504 Ry
     hartree contribution      =       3.53252027 Ry
     xc contribution           =      -1.96611233 Ry
     ewald contribution        =      -2.40229306 Ry

     convergence has been achieved in   7 iterations

     Writing output data file si.save

     init_run     :     24.55s CPU     25.60s WALL (       1 calls)
     electrons    :    629.01s CPU    647.40s WALL (       1 calls)

     Called by init_run:
     wfcinit      :     21.99s CPU     22.85s WALL (       1 calls)
     potinit      :      0.96s CPU      1.03s WALL (       1 calls)

     Called by electrons:
     c_bands      :    571.59s CPU    587.94s WALL (       8 calls)
     sum_band     :     50.47s CPU     52.20s WALL (       8 calls)
     v_of_rho     :      6.02s CPU      6.14s WALL (       8 calls)
     mix_rho      :      1.40s CPU      1.53s WALL (       8 calls)

     Called by c_bands:
     init_us_2    :     13.99s CPU     14.21s WALL (    1428 calls)
     ccgdiagg     :    501.80s CPU    516.09s WALL (     672 calls)
     wfcrot       :     81.22s CPU     83.74s WALL (     588 calls)

     Called by sum_band:

     Called by *cgdiagg:
     h_psi        :    540.62s CPU    555.77s WALL (    8274 calls)
     cdiaghg      :      0.02s CPU      0.03s WALL (     588 calls)

     Called by h_psi:
     add_vuspsi   :      9.31s CPU      9.47s WALL (    8274 calls)
     h_1psi       :    463.53s CPU    476.26s WALL (    7686 calls)

     General routines
     calbec       :     21.45s CPU     22.35s WALL (   15960 calls)
     fft          :      5.05s CPU      5.22s WALL (      89 calls)
     fftw         :    443.50s CPU    458.39s WALL (   19404 calls)
     davcio       :      0.00s CPU      0.05s WALL (      84 calls)

     Parallel routines
     fft_scatter  :    140.92s CPU    153.50s WALL (   19493 calls)

     PWSCF        : 10m54.51s CPU    11m14.45s WALL


   This run was terminated on:   9:55:37   5Apr2016            

=------------------------------------------------------------------------------=
   JOB DONE.
=------------------------------------------------------------------------------=
