
     Program PWSCF v.5.3.0 (svn rev. 11974) starts on  5Apr2016 at  9: 9:52 

     This program is part of the open-source Quantum ESPRESSO suite
     for quantum simulation of materials; please cite
         "P. Giannozzi et al., J. Phys.:Condens. Matter 21 395502 (2009);
          URL http://www.quantum-espresso.org", 
     in publications or presentations arising from this work. More details at
     http://www.quantum-espresso.org/quote

     Parallel version (MPI), running on     8 processors
     R & G space division:  proc/nbgrp/npool/nimage =       8
     Waiting for input...
     Reading input from standard input

     Current dimensions of program PWSCF are:
     Max number of different atomic species (ntypx) = 10
     Max number of k-points (npk) =  40000
     Max angular momentum in pseudopotentials (lmaxx) =  3

     Subspace diagonalization in iterative solution of the eigenvalue problem:
     a serial algorithm will be used


     Parallelization info
     --------------------
     sticks:   dense  smooth     PW     G-vecs:    dense   smooth      PW
     Min         207     207     59                 5567     5567     858
     Max         209     209     60                 5568     5568     861
     Sum        1663    1663    475                44543    44543    6879



     bravais-lattice index     =            0
     lattice parameter (alat)  =       7.0821  a.u.
     unit-cell volume          =     251.1680 (a.u.)^3
     number of atoms/cell      =            2
     number of atomic types    =            1
     number of electrons       =         8.00
     number of Kohn-Sham states=            4
     kinetic-energy cutoff     =     120.0000  Ry
     charge density cutoff     =     480.0000  Ry
     convergence threshold     =      1.0E-12
     mixing beta               =       0.7000
     number of iterations used =            8  plain     mixing
     Exchange-correlation      =  SLA  PW   PBE  PBE ( 1  4  3  4 0 0)

     celldm(1)=   7.082062  celldm(2)=   0.000000  celldm(3)=   0.000000
     celldm(4)=   0.000000  celldm(5)=   0.000000  celldm(6)=   0.000000

     crystal axes: (cart. coord. in units of alat)
               a(1) = (   0.000000   0.707107   0.707107 )  
               a(2) = (   0.707107   0.000000   0.707107 )  
               a(3) = (   0.707107   0.707107   0.000000 )  

     reciprocal axes: (cart. coord. in units 2 pi/alat)
               b(1) = ( -0.707107  0.707107  0.707107 )  
               b(2) = (  0.707107 -0.707107  0.707107 )  
               b(3) = (  0.707107  0.707107 -0.707107 )  


     PseudoPot. # 1 for Si read from file:
     /home/junhao/espresso/espresso-5.3.0/pseudo/Si.pbe-rrkj.UPF
     MD5 check sum: cf7ab5690cd9a85b22c4813f7e365554
     Pseudo is Norm-conserving, Zval =  4.0
     Generated by new atomic code, or converted to UPF format
     Using radial grid of  883 points,  3 beta functions with: 
                l(1) =   0
                l(2) =   0
                l(3) =   1

     atomic species   valence    mass     pseudopotential
        Si             4.00    28.08550     Si( 1.00)

     24 Sym. Ops. (no inversion) found
          (note: 24 additional sym.ops. were found but ignored
           their fractional translations are incommensurate with FFT grid)


   Cartesian axes

     site n.     atom                  positions (alat units)
         1           Si  tau(   1) = (   0.0000000   0.0000000   0.0000000  )
         2           Si  tau(   2) = (   0.3535534   0.3535534   0.3535534  )

     number of k points=    72
                       cart. coord. in units 2pi/alat
        k(    1) = (   0.0000000   0.0000000   0.0000000), wk =   0.0011574
        k(    2) = (   0.0589256   0.0589256  -0.0589256), wk =   0.0092593
        k(    3) = (   0.1178511   0.1178511  -0.1178511), wk =   0.0092593
        k(    4) = (   0.1767767   0.1767767  -0.1767767), wk =   0.0092593
        k(    5) = (   0.2357023   0.2357023  -0.2357023), wk =   0.0092593
        k(    6) = (   0.2946278   0.2946278  -0.2946278), wk =   0.0092593
        k(    7) = (  -0.3535534  -0.3535534   0.3535534), wk =   0.0046296
        k(    8) = (   0.1178511   0.0000000   0.0000000), wk =   0.0069444
        k(    9) = (   0.1767767   0.0589256  -0.0589256), wk =   0.0277778
        k(   10) = (   0.2357023   0.1178511  -0.1178511), wk =   0.0277778
        k(   11) = (   0.2946278   0.1767767  -0.1767767), wk =   0.0277778
        k(   12) = (   0.3535534   0.2357023  -0.2357023), wk =   0.0277778
        k(   13) = (  -0.2946278  -0.4124790   0.4124790), wk =   0.0277778
        k(   14) = (  -0.2357023  -0.3535534   0.3535534), wk =   0.0277778
        k(   15) = (  -0.1767767  -0.2946278   0.2946278), wk =   0.0277778
        k(   16) = (  -0.1178511  -0.2357023   0.2357023), wk =   0.0277778
        k(   17) = (  -0.0589256  -0.1767767   0.1767767), wk =   0.0277778
        k(   18) = (  -0.0000000  -0.1178511   0.1178511), wk =   0.0138889
        k(   19) = (   0.2357023   0.0000000   0.0000000), wk =   0.0069444
        k(   20) = (   0.2946278   0.0589256  -0.0589256), wk =   0.0277778
        k(   21) = (   0.3535534   0.1178511  -0.1178511), wk =   0.0277778
        k(   22) = (   0.4124790   0.1767767  -0.1767767), wk =   0.0277778
        k(   23) = (  -0.2357023  -0.4714045   0.4714045), wk =   0.0277778
        k(   24) = (  -0.1767767  -0.4124790   0.4124790), wk =   0.0277778
        k(   25) = (  -0.1178511  -0.3535534   0.3535534), wk =   0.0277778
        k(   26) = (  -0.0589256  -0.2946278   0.2946278), wk =   0.0277778
        k(   27) = (   0.0000000  -0.2357023   0.2357023), wk =   0.0138889
        k(   28) = (   0.3535534   0.0000000   0.0000000), wk =   0.0069444
        k(   29) = (   0.4124790   0.0589256  -0.0589256), wk =   0.0277778
        k(   30) = (   0.4714045   0.1178511  -0.1178511), wk =   0.0277778
        k(   31) = (  -0.1767767  -0.5303301   0.5303301), wk =   0.0277778
        k(   32) = (  -0.1178511  -0.4714045   0.4714045), wk =   0.0277778
        k(   33) = (  -0.0589256  -0.4124790   0.4124790), wk =   0.0277778
        k(   34) = (   0.0000000  -0.3535534   0.3535534), wk =   0.0138889
        k(   35) = (   0.4714045   0.0000000   0.0000000), wk =   0.0069444
        k(   36) = (   0.5303301   0.0589256  -0.0589256), wk =   0.0277778
        k(   37) = (  -0.1178511  -0.5892557   0.5892557), wk =   0.0277778
        k(   38) = (  -0.0589256  -0.5303301   0.5303301), wk =   0.0277778
        k(   39) = (  -0.0000000  -0.4714045   0.4714045), wk =   0.0138889
        k(   40) = (   0.5892557   0.0000000   0.0000000), wk =   0.0069444
        k(   41) = (  -0.0589256  -0.6481812   0.6481812), wk =   0.0277778
        k(   42) = (   0.0000000  -0.5892557   0.5892557), wk =   0.0138889
        k(   43) = (  -0.7071068   0.0000000   0.0000000), wk =   0.0034722
        k(   44) = (   0.2357023   0.1178511  -0.0000000), wk =   0.0277778
        k(   45) = (   0.2946278   0.1767767  -0.0589256), wk =   0.0555556
        k(   46) = (   0.3535534   0.2357023  -0.1178511), wk =   0.0555556
        k(   47) = (  -0.2946278  -0.4124790   0.5303301), wk =   0.0555556
        k(   48) = (  -0.2357023  -0.3535534   0.4714045), wk =   0.0277778
        k(   49) = (   0.3535534   0.1178511   0.0000000), wk =   0.0277778
        k(   50) = (   0.4124790   0.1767767  -0.0589256), wk =   0.0555556
        k(   51) = (  -0.2357023  -0.4714045   0.5892557), wk =   0.0555556
        k(   52) = (  -0.1767767  -0.4124790   0.5303301), wk =   0.0555556
        k(   53) = (  -0.1178511  -0.3535534   0.4714045), wk =   0.0555556
        k(   54) = (  -0.0589256  -0.2946278   0.4124790), wk =   0.0555556
        k(   55) = (   0.0000000  -0.2357023   0.3535534), wk =   0.0277778
        k(   56) = (   0.4714045   0.1178511   0.0000000), wk =   0.0277778
        k(   57) = (  -0.1767767  -0.5303301   0.6481812), wk =   0.0555556
        k(   58) = (  -0.1178511  -0.4714045   0.5892557), wk =   0.0555556
        k(   59) = (  -0.0589256  -0.4124790   0.5303301), wk =   0.0555556
        k(   60) = (  -0.0000000  -0.3535534   0.4714045), wk =   0.0277778
        k(   61) = (  -0.1178511  -0.5892557   0.7071068), wk =   0.0277778
        k(   62) = (  -0.0589256  -0.5303301   0.6481812), wk =   0.0555556
        k(   63) = (  -0.0000000  -0.4714045   0.5892557), wk =   0.0277778
        k(   64) = (  -0.7071068   0.1178511   0.0000000), wk =   0.0138889
        k(   65) = (  -0.2357023  -0.4714045   0.7071068), wk =   0.0277778
        k(   66) = (  -0.1767767  -0.4124790   0.6481812), wk =   0.0555556
        k(   67) = (  -0.1178511  -0.3535534   0.5892557), wk =   0.0277778
        k(   68) = (  -0.1178511  -0.4714045   0.7071068), wk =   0.0277778
        k(   69) = (  -0.0589256  -0.4124790   0.6481812), wk =   0.0555556
        k(   70) = (   0.0000000  -0.3535534   0.5892557), wk =   0.0277778
        k(   71) = (  -0.7071068   0.2357023   0.0000000), wk =   0.0138889
        k(   72) = (  -0.7071068   0.3535534   0.0000000), wk =   0.0069444

     Dense  grid:    44543 G-vectors     FFT dimensions: (  50,  50,  50)

     Largest allocated arrays     est. size (Mb)     dimensions
        Kohn-Sham Wavefunctions         0.04 Mb     (     701,    4)
        NL pseudopotentials             0.11 Mb     (     701,   10)
        Each V/rho on FFT grid          0.27 Mb     (   17500)
        Each G-vector array             0.04 Mb     (    5568)
        G-vector shells                 0.00 Mb     (     407)
     Largest temporary arrays     est. size (Mb)     dimensions
        Each subspace H/S matrix        0.00 Mb     (       4,    4)
        Each <psi_i|beta_j> matrix      0.00 Mb     (      10,    4)
        Arrays for rho mixing           2.14 Mb     (   17500,    8)

     Initial potential from superposition of free atoms

     starting charge    7.99889, renormalised to    8.00000
     Starting wfc are    8 randomized atomic wfcs

     total cpu time spent up to now is        1.0 secs

     per-process dynamical memory:    14.9 Mb

     Self-consistent Calculation

     iteration #  1     ecut=   120.00 Ry     beta=0.70
     CG style diagonalization
     ethr =  1.00E-02,  avg # of iterations =  3.0

     Threshold (ethr) on eigenvalues was too large:
     Diagonalizing with lowered threshold

     CG style diagonalization
     ethr =  8.32E-04,  avg # of iterations =  2.1

     total cpu time spent up to now is        3.4 secs

     total energy              =     -15.72990634 Ry
     Harris-Foulkes estimate   =     -15.74647146 Ry
     estimated scf accuracy    <       0.06397931 Ry

     iteration #  2     ecut=   120.00 Ry     beta=0.70
     CG style diagonalization
     ethr =  8.00E-04,  avg # of iterations =  3.0

     total cpu time spent up to now is        4.8 secs

     total energy              =     -15.73262276 Ry
     Harris-Foulkes estimate   =     -15.73267965 Ry
     estimated scf accuracy    <       0.00313238 Ry

     iteration #  3     ecut=   120.00 Ry     beta=0.70
     CG style diagonalization
     ethr =  3.92E-05,  avg # of iterations =  4.0

     total cpu time spent up to now is        6.5 secs

     total energy              =     -15.73352020 Ry
     Harris-Foulkes estimate   =     -15.73358903 Ry
     estimated scf accuracy    <       0.00016493 Ry

     iteration #  4     ecut=   120.00 Ry     beta=0.70
     CG style diagonalization
     ethr =  2.06E-06,  avg # of iterations =  4.1

     total cpu time spent up to now is        8.4 secs

     total energy              =     -15.73355818 Ry
     Harris-Foulkes estimate   =     -15.73357596 Ry
     estimated scf accuracy    <       0.00004492 Ry

     iteration #  5     ecut=   120.00 Ry     beta=0.70
     CG style diagonalization
     ethr =  5.62E-07,  avg # of iterations =  3.5

     total cpu time spent up to now is        9.9 secs

     total energy              =     -15.73356350 Ry
     Harris-Foulkes estimate   =     -15.73356341 Ry
     estimated scf accuracy    <       0.00000005 Ry

     iteration #  6     ecut=   120.00 Ry     beta=0.70
     CG style diagonalization
     ethr =  6.66E-10,  avg # of iterations =  6.1

     total cpu time spent up to now is       12.5 secs

     total energy              =     -15.73356399 Ry
     Harris-Foulkes estimate   =     -15.73356401 Ry
     estimated scf accuracy    <       0.00000004 Ry

     iteration #  7     ecut=   120.00 Ry     beta=0.70
     CG style diagonalization
     ethr =  5.33E-10,  avg # of iterations =  4.0

     total cpu time spent up to now is       14.3 secs

     total energy              =     -15.73356400 Ry
     Harris-Foulkes estimate   =     -15.73356400 Ry
     estimated scf accuracy    <       0.00000002 Ry

     iteration #  8     ecut=   120.00 Ry     beta=0.70
     CG style diagonalization
     ethr =  1.98E-10,  avg # of iterations =  3.1

     total cpu time spent up to now is       15.7 secs

     total energy              =     -15.73356400 Ry
     Harris-Foulkes estimate   =     -15.73356400 Ry
     estimated scf accuracy    <          8.5E-10 Ry

     iteration #  9     ecut=   120.00 Ry     beta=0.70
     CG style diagonalization
     ethr =  1.06E-11,  avg # of iterations =  4.3

     total cpu time spent up to now is       17.5 secs

     End of self-consistent calculation

          k = 0.0000 0.0000 0.0000 (  5601 PWs)   bands (ev):

    -5.4002   7.0129   7.0129   7.0129

          k = 0.0589 0.0589-0.0589 (  5627 PWs)   bands (ev):

    -5.3034   6.1578   6.8588   6.8588

          k = 0.1179 0.1179-0.1179 (  5606 PWs)   bands (ev):

    -5.0158   4.5903   6.5337   6.5337

          k = 0.1768 0.1768-0.1768 (  5591 PWs)   bands (ev):

    -4.5478   2.9726   6.2097   6.2097

          k = 0.2357 0.2357-0.2357 (  5594 PWs)   bands (ev):

    -3.9278   1.4863   5.9597   5.9597

          k = 0.2946 0.2946-0.2946 (  5576 PWs)   bands (ev):

    -3.2502   0.2758   5.8065   5.8065

          k =-0.3536-0.3536 0.3536 (  5600 PWs)   bands (ev):

    -2.8738  -0.2800   5.7553   5.7553

          k = 0.1179 0.0000 0.0000 (  5633 PWs)   bands (ev):

    -5.2710   6.3833   6.5460   6.5460

          k = 0.1768 0.0589-0.0589 (  5596 PWs)   bands (ev):

    -5.0466   5.0867   6.1578   6.3996

          k = 0.2357 0.1179-0.1179 (  5586 PWs)   bands (ev):

    -4.6373   3.5113   5.8286   6.0652

          k = 0.2946 0.1768-0.1768 (  5569 PWs)   bands (ev):

    -4.0632   1.9939   5.6113   5.6961

          k = 0.3536 0.2357-0.2357 (  5566 PWs)   bands (ev):

    -3.3851   0.6813   5.3836   5.5221

          k =-0.2946-0.4125 0.4125 (  5572 PWs)   bands (ev):

    -2.8382  -0.1586   5.1634   5.5603

          k =-0.2357-0.3536 0.3536 (  5568 PWs)   bands (ev):

    -2.9750   0.0378   5.0557   5.7160

          k =-0.1768-0.2946 0.2946 (  5572 PWs)   bands (ev):

    -3.6161   1.0889   5.0749   5.9720

          k =-0.1179-0.2357 0.2357 (  5575 PWs)   bands (ev):

    -4.2716   2.4861   5.2321   6.3007

          k =-0.0589-0.1768 0.1768 (  5598 PWs)   bands (ev):

    -4.7941   4.0260   5.5387   6.6486

          k =-0.0000-0.1179 0.1179 (  5617 PWs)   bands (ev):

    -5.1428   5.4389   6.0780   6.8951

          k = 0.2357 0.0000 0.0000 (  5577 PWs)   bands (ev):

    -4.8855   5.0646   5.7304   5.7304

          k = 0.2946 0.0589-0.0589 (  5586 PWs)   bands (ev):

    -4.5372   3.8994   5.3766   5.3968

          k = 0.3536 0.1179-0.1179 (  5559 PWs)   bands (ev):

    -4.0156   2.4964   4.9347   5.1481

          k = 0.4125 0.1768-0.1768 (  5567 PWs)   bands (ev):

    -3.3607   1.1728   4.4751   5.0634

          k =-0.2357-0.4714 0.4714 (  5566 PWs)   bands (ev):

    -2.7186   0.1571   4.1083   5.1250

          k =-0.1768-0.4125 0.4125 (  5568 PWs)   bands (ev):

    -2.5883  -0.0217   3.8738   5.3247

          k =-0.1179-0.3536 0.3536 (  5570 PWs)   bands (ev):

    -3.1427   0.8094   3.7993   5.6422

          k =-0.0589-0.2946 0.2946 (  5579 PWs)   bands (ev):

    -3.8187   2.0462   3.9279   6.0370

          k = 0.0000-0.2357 0.2357 (  5581 PWs)   bands (ev):

    -4.3886   3.2618   4.4246   6.4266

          k = 0.3536 0.0000 0.0000 (  5601 PWs)   bands (ev):

    -4.2496   3.5500   4.9911   4.9911

          k = 0.4125 0.0589-0.0589 (  5579 PWs)   bands (ev):

    -3.7842   2.5847   4.5007   4.7313

          k = 0.4714 0.1179-0.1179 (  5577 PWs)   bands (ev):

    -3.1673   1.4783   3.8330   4.6202

          k =-0.1768-0.5303 0.5303 (  5580 PWs)   bands (ev):

    -2.4882   0.4699   3.2557   4.6642

          k =-0.1179-0.4714 0.4714 (  5562 PWs)   bands (ev):

    -2.1230   0.0051   2.8660   4.8585

          k =-0.0589-0.4125 0.4125 (  5575 PWs)   bands (ev):

    -2.5389   0.5518   2.7228   5.1858

          k = 0.0000-0.3536 0.3536 (  5580 PWs)   bands (ev):

    -3.2146   1.4388   2.9895   5.6074

          k = 0.4714 0.0000 0.0000 (  5582 PWs)   bands (ev):

    -3.3746   1.9869   4.4331   4.4331

          k = 0.5303 0.0589-0.0589 (  5567 PWs)   bands (ev):

    -2.8037   1.1569   3.9039   4.2831

          k =-0.1179-0.5893 0.5893 (  5580 PWs)   bands (ev):

    -2.1255   0.3402   3.1091   4.2913

          k =-0.0589-0.5303 0.5303 (  5562 PWs)   bands (ev):

    -1.6024  -0.1987   2.4778   4.4565

          k =-0.0000-0.4714 0.4714 (  5558 PWs)   bands (ev):

    -1.8915   0.0992   2.2593   4.7655

          k = 0.5893 0.0000 0.0000 (  5574 PWs)   bands (ev):

    -2.2785   0.4513   4.0898   4.0898

          k =-0.0589-0.6482 0.6482 (  5568 PWs)   bands (ev):

    -1.6222  -0.2770   3.6128   4.0548

          k = 0.0000-0.5893 0.5893 (  5566 PWs)   bands (ev):

    -1.1142  -0.7159   2.8715   4.1800

          k =-0.7071 0.0000 0.0000 (  5514 PWs)   bands (ev):

    -0.9894  -0.9894   3.9742   3.9742

          k = 0.2357 0.1179-0.0000 (  5595 PWs)   bands (ev):

    -4.7605   4.2936   5.2558   6.2838

          k = 0.2946 0.1768-0.0589 (  5568 PWs)   bands (ev):

    -4.2947   2.9799   4.7124   5.9877

          k = 0.3536 0.2357-0.1179 (  5573 PWs)   bands (ev):

    -3.6770   1.5891   4.4515   5.6325

          k =-0.2946-0.4125 0.5303 (  5569 PWs)   bands (ev):

    -2.9989   0.4145   4.3339   5.3619

          k =-0.2357-0.3536 0.4714 (  5580 PWs)   bands (ev):

    -2.6186  -0.1352   4.3033   5.2600

          k = 0.3536 0.1179 0.0000 (  5573 PWs)   bands (ev):

    -4.1309   3.0942   4.5167   5.2901

          k = 0.4125 0.1768-0.0589 (  5565 PWs)   bands (ev):

    -3.5608   1.9739   3.9632   4.9716

          k =-0.2357-0.4714 0.5893 (  5572 PWs)   bands (ev):

    -2.8842   0.8307   3.6079   4.7373

          k =-0.1768-0.4125 0.5303 (  5572 PWs)   bands (ev):

    -2.3325   0.0510   3.3530   4.7171

          k =-0.1179-0.3536 0.4714 (  5574 PWs)   bands (ev):

    -2.4838   0.2582   3.2170   4.9064

          k =-0.0589-0.2946 0.4125 (  5566 PWs)   bands (ev):

    -3.1310   1.2192   3.2716   5.2519

          k = 0.0000-0.2357 0.3536 (  5566 PWs)   bands (ev):

    -3.7800   2.2686   3.6925   5.6680

          k = 0.4714 0.1179 0.0000 (  5578 PWs)   bands (ev):

    -3.2673   1.7964   3.9747   4.4313

          k =-0.1768-0.5303 0.6482 (  5583 PWs)   bands (ev):

    -2.6163   0.9093   3.3426   4.1934

          k =-0.1179-0.4714 0.5893 (  5574 PWs)   bands (ev):

    -1.9708   0.1306   2.7822   4.2042

          k =-0.0589-0.4125 0.5303 (  5569 PWs)   bands (ev):

    -1.8847   0.0457   2.4655   4.4201

          k =-0.0000-0.3536 0.4714 (  5578 PWs)   bands (ev):

    -2.4725   0.6817   2.5540   4.7936

          k =-0.1179-0.5893 0.7071 (  5575 PWs)   bands (ev):

    -2.1921   0.4179   3.6710   3.8748

          k =-0.0589-0.5303 0.6482 (  5574 PWs)   bands (ev):

    -1.5117  -0.2623   2.9742   3.8302

          k =-0.0000-0.4714 0.5893 (  5564 PWs)   bands (ev):

    -1.3234  -0.3978   2.4263   4.0428

          k =-0.7071 0.1179 0.0000 (  5558 PWs)   bands (ev):

    -0.9429  -0.9429   3.6299   3.6299

          k =-0.2357-0.4714 0.7071 (  5591 PWs)   bands (ev):

    -2.9552   1.2981   3.1862   4.5524

          k =-0.1768-0.4125 0.6482 (  5575 PWs)   bands (ev):

    -2.2780   0.4724   2.8233   4.1819

          k =-0.1179-0.3536 0.5893 (  5572 PWs)   bands (ev):

    -1.8777  -0.0041   2.7329   4.0394

          k =-0.1179-0.4714 0.7071 (  5586 PWs)   bands (ev):

    -1.9527   0.2703   2.9651   3.6172

          k =-0.0589-0.4125 0.6482 (  5577 PWs)   bands (ev):

    -1.3798  -0.2706   2.6129   3.4521

          k = 0.0000-0.3536 0.5893 (  5570 PWs)   bands (ev):

    -1.6264  -0.0312   2.4781   3.6974

          k =-0.7071 0.2357 0.0000 (  5554 PWs)   bands (ev):

    -0.8420  -0.8420   3.0870   3.0870

          k =-0.7071 0.3536 0.0000 (  5540 PWs)   bands (ev):

    -0.7866  -0.7866   2.8541   2.8541

     highest occupied level (ev):     7.0129

!    total energy              =     -15.73356400 Ry
     Harris-Foulkes estimate   =     -15.73356400 Ry
     estimated scf accuracy    <          3.1E-13 Ry

     The total energy is the sum of the following terms:

     one-electron contribution =       5.33609866 Ry
     hartree contribution      =       1.03278144 Ry
     xc contribution           =      -4.89145088 Ry
     ewald contribution        =     -17.21099322 Ry

     convergence has been achieved in   9 iterations

     Writing output data file si.save

     init_run     :      0.94s CPU      0.96s WALL (       1 calls)
     electrons    :     15.88s CPU     16.54s WALL (       1 calls)

     Called by init_run:
     wfcinit      :      0.81s CPU      0.82s WALL (       1 calls)
     potinit      :      0.04s CPU      0.04s WALL (       1 calls)

     Called by electrons:
     c_bands      :     13.73s CPU     14.27s WALL (      10 calls)
     sum_band     :      1.87s CPU      1.99s WALL (      10 calls)
     v_of_rho     :      0.24s CPU      0.24s WALL (      10 calls)
     mix_rho      :      0.04s CPU      0.05s WALL (      10 calls)

     Called by c_bands:
     init_us_2    :      0.45s CPU      0.41s WALL (    1512 calls)
     ccgdiagg     :     10.68s CPU     11.09s WALL (     720 calls)
     wfcrot       :      3.48s CPU      3.62s WALL (     648 calls)

     Called by sum_band:

     Called by *cgdiagg:
     h_psi        :     13.05s CPU     13.55s WALL (    9028 calls)
     cdiaghg      :      0.03s CPU      0.04s WALL (     648 calls)

     Called by h_psi:
     add_vuspsi   :      0.17s CPU      0.20s WALL (    9028 calls)
     h_1psi       :      9.73s CPU     10.09s WALL (    8380 calls)

     General routines
     calbec       :      0.46s CPU      0.51s WALL (   17408 calls)
     fft          :      0.10s CPU      0.11s WALL (     111 calls)
     fftw         :     13.50s CPU     13.54s WALL (   25400 calls)
     davcio       :      0.00s CPU      0.00s WALL (      72 calls)

     Parallel routines
     fft_scatter  :      1.60s CPU      2.07s WALL (   25511 calls)

     PWSCF        :    17.05s CPU        17.75s WALL


   This run was terminated on:   9:10:10   5Apr2016            

=------------------------------------------------------------------------------=
   JOB DONE.
=------------------------------------------------------------------------------=
