
     Program PWSCF v.5.3.0 (svn rev. 11974) starts on  5Apr2016 at  9: 2:41 

     This program is part of the open-source Quantum ESPRESSO suite
     for quantum simulation of materials; please cite
         "P. Giannozzi et al., J. Phys.:Condens. Matter 21 395502 (2009);
          URL http://www.quantum-espresso.org", 
     in publications or presentations arising from this work. More details at
     http://www.quantum-espresso.org/quote

     Parallel version (MPI), running on     8 processors
     R & G space division:  proc/nbgrp/npool/nimage =       8
     Waiting for input...
     Reading input from standard input

     Current dimensions of program PWSCF are:
     Max number of different atomic species (ntypx) = 10
     Max number of k-points (npk) =  40000
     Max angular momentum in pseudopotentials (lmaxx) =  3

     Subspace diagonalization in iterative solution of the eigenvalue problem:
     a serial algorithm will be used


     Parallelization info
     --------------------
     sticks:   dense  smooth     PW     G-vecs:    dense   smooth      PW
     Min         215     215     62                 5897     5897     922
     Max         216     216     63                 5900     5900     926
     Sum        1723    1723    499                47183    47183    7391



     bravais-lattice index     =            0
     lattice parameter (alat)  =       7.2157  a.u.
     unit-cell volume          =     265.6549 (a.u.)^3
     number of atoms/cell      =            2
     number of atomic types    =            1
     number of electrons       =         8.00
     number of Kohn-Sham states=            4
     kinetic-energy cutoff     =     120.0000  Ry
     charge density cutoff     =     480.0000  Ry
     convergence threshold     =      1.0E-12
     mixing beta               =       0.7000
     number of iterations used =            8  plain     mixing
     Exchange-correlation      =  SLA  PW   PBE  PBE ( 1  4  3  4 0 0)

     celldm(1)=   7.215686  celldm(2)=   0.000000  celldm(3)=   0.000000
     celldm(4)=   0.000000  celldm(5)=   0.000000  celldm(6)=   0.000000

     crystal axes: (cart. coord. in units of alat)
               a(1) = (   0.000000   0.707107   0.707107 )  
               a(2) = (   0.707107   0.000000   0.707107 )  
               a(3) = (   0.707107   0.707107   0.000000 )  

     reciprocal axes: (cart. coord. in units 2 pi/alat)
               b(1) = ( -0.707107  0.707107  0.707107 )  
               b(2) = (  0.707107 -0.707107  0.707107 )  
               b(3) = (  0.707107  0.707107 -0.707107 )  


     PseudoPot. # 1 for Si read from file:
     /home/junhao/espresso/espresso-5.3.0/pseudo/Si.pbe-rrkj.UPF
     MD5 check sum: cf7ab5690cd9a85b22c4813f7e365554
     Pseudo is Norm-conserving, Zval =  4.0
     Generated by new atomic code, or converted to UPF format
     Using radial grid of  883 points,  3 beta functions with: 
                l(1) =   0
                l(2) =   0
                l(3) =   1

     atomic species   valence    mass     pseudopotential
        Si             4.00    28.08550     Si( 1.00)

     24 Sym. Ops. (no inversion) found
          (note: 24 additional sym.ops. were found but ignored
           their fractional translations are incommensurate with FFT grid)


   Cartesian axes

     site n.     atom                  positions (alat units)
         1           Si  tau(   1) = (   0.0000000   0.0000000   0.0000000  )
         2           Si  tau(   2) = (   0.3535534   0.3535534   0.3535534  )

     number of k points=    72
                       cart. coord. in units 2pi/alat
        k(    1) = (   0.0000000   0.0000000   0.0000000), wk =   0.0011574
        k(    2) = (   0.0589256   0.0589256  -0.0589256), wk =   0.0092593
        k(    3) = (   0.1178511   0.1178511  -0.1178511), wk =   0.0092593
        k(    4) = (   0.1767767   0.1767767  -0.1767767), wk =   0.0092593
        k(    5) = (   0.2357023   0.2357023  -0.2357023), wk =   0.0092593
        k(    6) = (   0.2946278   0.2946278  -0.2946278), wk =   0.0092593
        k(    7) = (  -0.3535534  -0.3535534   0.3535534), wk =   0.0046296
        k(    8) = (   0.1178511   0.0000000   0.0000000), wk =   0.0069444
        k(    9) = (   0.1767767   0.0589256  -0.0589256), wk =   0.0277778
        k(   10) = (   0.2357023   0.1178511  -0.1178511), wk =   0.0277778
        k(   11) = (   0.2946278   0.1767767  -0.1767767), wk =   0.0277778
        k(   12) = (   0.3535534   0.2357023  -0.2357023), wk =   0.0277778
        k(   13) = (  -0.2946278  -0.4124790   0.4124790), wk =   0.0277778
        k(   14) = (  -0.2357023  -0.3535534   0.3535534), wk =   0.0277778
        k(   15) = (  -0.1767767  -0.2946278   0.2946278), wk =   0.0277778
        k(   16) = (  -0.1178511  -0.2357023   0.2357023), wk =   0.0277778
        k(   17) = (  -0.0589256  -0.1767767   0.1767767), wk =   0.0277778
        k(   18) = (  -0.0000000  -0.1178511   0.1178511), wk =   0.0138889
        k(   19) = (   0.2357023   0.0000000   0.0000000), wk =   0.0069444
        k(   20) = (   0.2946278   0.0589256  -0.0589256), wk =   0.0277778
        k(   21) = (   0.3535534   0.1178511  -0.1178511), wk =   0.0277778
        k(   22) = (   0.4124790   0.1767767  -0.1767767), wk =   0.0277778
        k(   23) = (  -0.2357023  -0.4714045   0.4714045), wk =   0.0277778
        k(   24) = (  -0.1767767  -0.4124790   0.4124790), wk =   0.0277778
        k(   25) = (  -0.1178511  -0.3535534   0.3535534), wk =   0.0277778
        k(   26) = (  -0.0589256  -0.2946278   0.2946278), wk =   0.0277778
        k(   27) = (   0.0000000  -0.2357023   0.2357023), wk =   0.0138889
        k(   28) = (   0.3535534   0.0000000   0.0000000), wk =   0.0069444
        k(   29) = (   0.4124790   0.0589256  -0.0589256), wk =   0.0277778
        k(   30) = (   0.4714045   0.1178511  -0.1178511), wk =   0.0277778
        k(   31) = (  -0.1767767  -0.5303301   0.5303301), wk =   0.0277778
        k(   32) = (  -0.1178511  -0.4714045   0.4714045), wk =   0.0277778
        k(   33) = (  -0.0589256  -0.4124790   0.4124790), wk =   0.0277778
        k(   34) = (   0.0000000  -0.3535534   0.3535534), wk =   0.0138889
        k(   35) = (   0.4714045   0.0000000   0.0000000), wk =   0.0069444
        k(   36) = (   0.5303301   0.0589256  -0.0589256), wk =   0.0277778
        k(   37) = (  -0.1178511  -0.5892557   0.5892557), wk =   0.0277778
        k(   38) = (  -0.0589256  -0.5303301   0.5303301), wk =   0.0277778
        k(   39) = (  -0.0000000  -0.4714045   0.4714045), wk =   0.0138889
        k(   40) = (   0.5892557   0.0000000   0.0000000), wk =   0.0069444
        k(   41) = (  -0.0589256  -0.6481812   0.6481812), wk =   0.0277778
        k(   42) = (   0.0000000  -0.5892557   0.5892557), wk =   0.0138889
        k(   43) = (  -0.7071068   0.0000000   0.0000000), wk =   0.0034722
        k(   44) = (   0.2357023   0.1178511  -0.0000000), wk =   0.0277778
        k(   45) = (   0.2946278   0.1767767  -0.0589256), wk =   0.0555556
        k(   46) = (   0.3535534   0.2357023  -0.1178511), wk =   0.0555556
        k(   47) = (  -0.2946278  -0.4124790   0.5303301), wk =   0.0555556
        k(   48) = (  -0.2357023  -0.3535534   0.4714045), wk =   0.0277778
        k(   49) = (   0.3535534   0.1178511   0.0000000), wk =   0.0277778
        k(   50) = (   0.4124790   0.1767767  -0.0589256), wk =   0.0555556
        k(   51) = (  -0.2357023  -0.4714045   0.5892557), wk =   0.0555556
        k(   52) = (  -0.1767767  -0.4124790   0.5303301), wk =   0.0555556
        k(   53) = (  -0.1178511  -0.3535534   0.4714045), wk =   0.0555556
        k(   54) = (  -0.0589256  -0.2946278   0.4124790), wk =   0.0555556
        k(   55) = (   0.0000000  -0.2357023   0.3535534), wk =   0.0277778
        k(   56) = (   0.4714045   0.1178511   0.0000000), wk =   0.0277778
        k(   57) = (  -0.1767767  -0.5303301   0.6481812), wk =   0.0555556
        k(   58) = (  -0.1178511  -0.4714045   0.5892557), wk =   0.0555556
        k(   59) = (  -0.0589256  -0.4124790   0.5303301), wk =   0.0555556
        k(   60) = (  -0.0000000  -0.3535534   0.4714045), wk =   0.0277778
        k(   61) = (  -0.1178511  -0.5892557   0.7071068), wk =   0.0277778
        k(   62) = (  -0.0589256  -0.5303301   0.6481812), wk =   0.0555556
        k(   63) = (  -0.0000000  -0.4714045   0.5892557), wk =   0.0277778
        k(   64) = (  -0.7071068   0.1178511   0.0000000), wk =   0.0138889
        k(   65) = (  -0.2357023  -0.4714045   0.7071068), wk =   0.0277778
        k(   66) = (  -0.1767767  -0.4124790   0.6481812), wk =   0.0555556
        k(   67) = (  -0.1178511  -0.3535534   0.5892557), wk =   0.0277778
        k(   68) = (  -0.1178511  -0.4714045   0.7071068), wk =   0.0277778
        k(   69) = (  -0.0589256  -0.4124790   0.6481812), wk =   0.0555556
        k(   70) = (   0.0000000  -0.3535534   0.5892557), wk =   0.0277778
        k(   71) = (  -0.7071068   0.2357023   0.0000000), wk =   0.0138889
        k(   72) = (  -0.7071068   0.3535534   0.0000000), wk =   0.0069444

     Dense  grid:    47183 G-vectors     FFT dimensions: (  54,  54,  54)

     Largest allocated arrays     est. size (Mb)     dimensions
        Kohn-Sham Wavefunctions         0.05 Mb     (     748,    4)
        NL pseudopotentials             0.11 Mb     (     748,   10)
        Each V/rho on FFT grid          0.31 Mb     (   20412)
        Each G-vector array             0.05 Mb     (    5900)
        G-vector shells                 0.00 Mb     (     418)
     Largest temporary arrays     est. size (Mb)     dimensions
        Each subspace H/S matrix        0.00 Mb     (       4,    4)
        Each <psi_i|beta_j> matrix      0.00 Mb     (      10,    4)
        Arrays for rho mixing           2.49 Mb     (   20412,    8)

     Initial potential from superposition of free atoms

     starting charge    7.99889, renormalised to    8.00000
     Starting wfc are    8 randomized atomic wfcs

     total cpu time spent up to now is        1.1 secs

     per-process dynamical memory:    15.4 Mb

     Self-consistent Calculation

     iteration #  1     ecut=   120.00 Ry     beta=0.70
     CG style diagonalization
     ethr =  1.00E-02,  avg # of iterations =  3.0

     Threshold (ethr) on eigenvalues was too large:
     Diagonalizing with lowered threshold

     CG style diagonalization
     ethr =  7.56E-04,  avg # of iterations =  2.1

     total cpu time spent up to now is        3.8 secs

     total energy              =     -15.73739375 Ry
     Harris-Foulkes estimate   =     -15.75150584 Ry
     estimated scf accuracy    <       0.05833014 Ry

     iteration #  2     ecut=   120.00 Ry     beta=0.70
     CG style diagonalization
     ethr =  7.29E-04,  avg # of iterations =  3.0

     total cpu time spent up to now is        5.4 secs

     total energy              =     -15.73965518 Ry
     Harris-Foulkes estimate   =     -15.73974074 Ry
     estimated scf accuracy    <       0.00305568 Ry

     iteration #  3     ecut=   120.00 Ry     beta=0.70
     CG style diagonalization
     ethr =  3.82E-05,  avg # of iterations =  3.9

     total cpu time spent up to now is        7.3 secs

     total energy              =     -15.74041961 Ry
     Harris-Foulkes estimate   =     -15.74047522 Ry
     estimated scf accuracy    <       0.00013892 Ry

     iteration #  4     ecut=   120.00 Ry     beta=0.70
     CG style diagonalization
     ethr =  1.74E-06,  avg # of iterations =  4.1

     total cpu time spent up to now is        9.4 secs

     total energy              =     -15.74045818 Ry
     Harris-Foulkes estimate   =     -15.74047121 Ry
     estimated scf accuracy    <       0.00003374 Ry

     iteration #  5     ecut=   120.00 Ry     beta=0.70
     CG style diagonalization
     ethr =  4.22E-07,  avg # of iterations =  3.4

     total cpu time spent up to now is       11.1 secs

     total energy              =     -15.74046212 Ry
     Harris-Foulkes estimate   =     -15.74046206 Ry
     estimated scf accuracy    <       0.00000024 Ry

     iteration #  6     ecut=   120.00 Ry     beta=0.70
     CG style diagonalization
     ethr =  2.98E-09,  avg # of iterations =  5.4

     total cpu time spent up to now is       13.7 secs

     total energy              =     -15.74046258 Ry
     Harris-Foulkes estimate   =     -15.74046261 Ry
     estimated scf accuracy    <       0.00000007 Ry

     iteration #  7     ecut=   120.00 Ry     beta=0.70
     CG style diagonalization
     ethr =  8.59E-10,  avg # of iterations =  4.0

     total cpu time spent up to now is       15.7 secs

     total energy              =     -15.74046259 Ry
     Harris-Foulkes estimate   =     -15.74046260 Ry
     estimated scf accuracy    <       0.00000002 Ry

     iteration #  8     ecut=   120.00 Ry     beta=0.70
     CG style diagonalization
     ethr =  2.25E-10,  avg # of iterations =  3.2

     total cpu time spent up to now is       17.3 secs

     total energy              =     -15.74046259 Ry
     Harris-Foulkes estimate   =     -15.74046259 Ry
     estimated scf accuracy    <          1.4E-09 Ry

     iteration #  9     ecut=   120.00 Ry     beta=0.70
     CG style diagonalization
     ethr =  1.74E-11,  avg # of iterations =  3.9

     total cpu time spent up to now is       19.3 secs

     total energy              =     -15.74046259 Ry
     Harris-Foulkes estimate   =     -15.74046259 Ry
     estimated scf accuracy    <          6.3E-11 Ry

     iteration # 10     ecut=   120.00 Ry     beta=0.70
     CG style diagonalization
     ethr =  7.93E-13,  avg # of iterations =  4.5

     total cpu time spent up to now is       21.5 secs

     total energy              =     -15.74046259 Ry
     Harris-Foulkes estimate   =     -15.74046259 Ry
     estimated scf accuracy    <          2.1E-11 Ry

     iteration # 11     ecut=   120.00 Ry     beta=0.70
     CG style diagonalization
     ethr =  2.67E-13,  avg # of iterations =  3.4

     total cpu time spent up to now is       23.3 secs

     End of self-consistent calculation

          k = 0.0000 0.0000 0.0000 (  5961 PWs)   bands (ev):

    -5.6122   6.4050   6.4050   6.4050

          k = 0.0589 0.0589-0.0589 (  5913 PWs)   bands (ev):

    -5.5199   5.5589   6.2596   6.2596

          k = 0.1179 0.1179-0.1179 (  5907 PWs)   bands (ev):

    -5.2458   4.0358   5.9497   5.9497

          k = 0.1768 0.1768-0.1768 (  5913 PWs)   bands (ev):

    -4.8006   2.4783   5.6377   5.6377

          k = 0.2357 0.2357-0.2357 (  5888 PWs)   bands (ev):

    -4.2135   1.0556   5.3952   5.3952

          k = 0.2946 0.2946-0.2946 (  5906 PWs)   bands (ev):

    -3.5788  -0.0923   5.2459   5.2459

          k =-0.3536-0.3536 0.3536 (  5900 PWs)   bands (ev):

    -3.2337  -0.6101   5.1958   5.1958

          k = 0.1179 0.0000 0.0000 (  5901 PWs)   bands (ev):

    -5.4890   5.7412   5.9684   5.9684

          k = 0.1768 0.0589-0.0589 (  5910 PWs)   bands (ev):

    -5.2750   4.4993   5.6000   5.8048

          k = 0.2357 0.1179-0.1179 (  5913 PWs)   bands (ev):

    -4.8854   2.9853   5.2837   5.4810

          k = 0.2946 0.1768-0.1768 (  5909 PWs)   bands (ev):

    -4.3406   1.5331   5.0724   5.1256

          k = 0.3536 0.2357-0.2357 (  5903 PWs)   bands (ev):

    -3.7022   0.2849   4.8263   4.9827

          k =-0.2946-0.4125 0.4125 (  5902 PWs)   bands (ev):

    -3.1971  -0.5018   4.6181   5.0151

          k =-0.2357-0.3536 0.3536 (  5898 PWs)   bands (ev):

    -3.3220  -0.3195   4.5197   5.1607

          k =-0.1768-0.2946 0.2946 (  5900 PWs)   bands (ev):

    -3.9189   0.6713   4.5447   5.4035

          k =-0.1179-0.2357 0.2357 (  5923 PWs)   bands (ev):

    -4.5381   2.0032   4.7028   5.7172

          k =-0.0589-0.1768 0.1768 (  5914 PWs)   bands (ev):

    -5.0347   3.4773   5.0058   6.0500

          k =-0.0000-0.1179 0.1179 (  5915 PWs)   bands (ev):

    -5.3668   4.8385   5.5292   6.2873

          k = 0.2357 0.0000 0.0000 (  5914 PWs)   bands (ev):

    -5.1213   4.4161   5.1954   5.1954

          k = 0.2946 0.0589-0.0589 (  5914 PWs)   bands (ev):

    -4.7894   3.3132   4.8551   4.8571

          k = 0.3536 0.1179-0.1179 (  5910 PWs)   bands (ev):

    -4.2937   1.9827   4.4040   4.6365

          k = 0.4125 0.1768-0.1768 (  5892 PWs)   bands (ev):

    -3.6747   0.7283   3.9621   4.5523

          k =-0.2357-0.4714 0.4714 (  5888 PWs)   bands (ev):

    -3.0765  -0.2253   3.6132   4.6077

          k =-0.1768-0.4125 0.4125 (  5893 PWs)   bands (ev):

    -2.9579  -0.3899   3.3944   4.7949

          k =-0.1179-0.3536 0.3536 (  5891 PWs)   bands (ev):

    -3.4712   0.3866   3.3329   5.0944

          k =-0.0589-0.2946 0.2946 (  5912 PWs)   bands (ev):

    -4.1081   1.5540   3.4718   5.4678

          k = 0.0000-0.2357 0.2357 (  5915 PWs)   bands (ev):

    -4.6488   2.7107   3.9613   5.8368

          k = 0.3536 0.0000 0.0000 (  5942 PWs)   bands (ev):

    -4.5151   2.9363   4.4900   4.4900

          k = 0.4125 0.0589-0.0589 (  5902 PWs)   bands (ev):

    -4.0720   2.0153   4.0214   4.2407

          k = 0.4714 0.1179-0.1179 (  5902 PWs)   bands (ev):

    -3.4871   0.9694   3.3841   4.1327

          k =-0.1768-0.5303 0.5303 (  5882 PWs)   bands (ev):

    -2.8497   0.0239   2.8322   4.1725

          k =-0.1179-0.4714 0.4714 (  5893 PWs)   bands (ev):

    -2.5152  -0.4033   2.4635   4.3554

          k =-0.0589-0.4125 0.4125 (  5893 PWs)   bands (ev):

    -2.9010   0.1036   2.3378   4.6648

          k = 0.0000-0.3536 0.3536 (  5913 PWs)   bands (ev):

    -3.5360   0.9405   2.6015   5.0630

          k = 0.4714 0.0000 0.0000 (  5882 PWs)   bands (ev):

    -3.6811   1.4310   3.9560   3.9560

          k = 0.5303 0.0589-0.0589 (  5888 PWs)   bands (ev):

    -3.1383   0.6365   3.4620   3.8118

          k =-0.1179-0.5893 0.5893 (  5884 PWs)   bands (ev):

    -2.4978  -0.1421   2.7203   3.8184

          k =-0.0589-0.5303 0.5303 (  5885 PWs)   bands (ev):

    -2.0151  -0.6447   2.1300   3.9745

          k =-0.0000-0.4714 0.4714 (  5902 PWs)   bands (ev):

    -2.2913  -0.3568   1.9245   4.2673

          k = 0.5893 0.0000 0.0000 (  5870 PWs)   bands (ev):

    -2.6371  -0.0368   3.6271   3.6271

          k =-0.0589-0.6482 0.6482 (  5886 PWs)   bands (ev):

    -2.0140  -0.7329   3.1866   3.5932

          k = 0.0000-0.5893 0.5893 (  5882 PWs)   bands (ev):

    -1.5450  -1.1452   2.5008   3.7120

          k =-0.7071 0.0000 0.0000 (  5874 PWs)   bands (ev):

    -1.4096  -1.4096   3.5163   3.5163

          k = 0.2357 0.1179-0.0000 (  5910 PWs)   bands (ev):

    -5.0024   3.7072   4.7493   5.6976

          k = 0.2946 0.1768-0.0589 (  5919 PWs)   bands (ev):

    -4.5594   2.4523   4.2174   5.4180

          k = 0.3536 0.2357-0.1179 (  5900 PWs)   bands (ev):

    -3.9742   1.1313   3.9524   5.0845

          k =-0.2946-0.4125 0.5303 (  5895 PWs)   bands (ev):

    -3.3385   0.0219   3.8290   4.8322

          k =-0.2357-0.3536 0.4714 (  5894 PWs)   bands (ev):

    -2.9893  -0.4891   3.7952   4.7380

          k = 0.3536 0.1179 0.0000 (  5913 PWs)   bands (ev):

    -4.4026   2.5200   4.0450   4.7622

          k = 0.4125 0.1768-0.0589 (  5898 PWs)   bands (ev):

    -3.8614   1.4551   3.5067   4.4670

          k =-0.2357-0.4714 0.5893 (  5889 PWs)   bands (ev):

    -3.2237   0.3800   3.1531   4.2505

          k =-0.1768-0.4125 0.5303 (  5894 PWs)   bands (ev):

    -2.7129  -0.3446   2.9063   4.2318

          k =-0.1179-0.3536 0.4714 (  5888 PWs)   bands (ev):

    -2.8526  -0.1524   2.7835   4.4082

          k =-0.0589-0.2946 0.4125 (  5900 PWs)   bands (ev):

    -3.4569   0.7450   2.8513   4.7315

          k = 0.0000-0.2357 0.3536 (  5912 PWs)   bands (ev):

    -4.0705   1.7393   3.2658   5.1207

          k = 0.4714 0.1179 0.0000 (  5906 PWs)   bands (ev):

    -3.5804   1.2520   3.5284   3.9610

          k =-0.1768-0.5303 0.6482 (  5895 PWs)   bands (ev):

    -2.9642   0.4060   2.9321   3.7394

          k =-0.1179-0.4714 0.5893 (  5890 PWs)   bands (ev):

    -2.3610  -0.3238   2.4028   3.7481

          k =-0.0589-0.4125 0.5303 (  5891 PWs)   bands (ev):

    -2.2859  -0.3985   2.1076   3.9506

          k =-0.0000-0.3536 0.4714 (  5885 PWs)   bands (ev):

    -2.8357   0.2019   2.1946   4.3018

          k =-0.1179-0.5893 0.7071 (  5881 PWs)   bands (ev):

    -2.5574  -0.0723   3.2399   3.4369

          k =-0.0589-0.5303 0.6482 (  5886 PWs)   bands (ev):

    -1.9163  -0.7228   2.5965   3.3933

          k =-0.0000-0.4714 0.5893 (  5885 PWs)   bands (ev):

    -1.7524  -0.8422   2.0872   3.5938

          k =-0.7071 0.1179 0.0000 (  5892 PWs)   bands (ev):

    -1.3692  -1.3692   3.2027   3.2027

          k =-0.2357-0.4714 0.7071 (  5895 PWs)   bands (ev):

    -3.2876   0.7848   2.7871   4.0795

          k =-0.1768-0.4125 0.6482 (  5886 PWs)   bands (ev):

    -2.6507   0.0029   2.4372   3.7350

          k =-0.1179-0.3536 0.5893 (  5888 PWs)   bands (ev):

    -2.2803  -0.4379   2.3455   3.6025

          k =-0.1179-0.4714 0.7071 (  5897 PWs)   bands (ev):

    -2.3369  -0.2168   2.5826   3.2071

          k =-0.0589-0.4125 0.6482 (  5898 PWs)   bands (ev):

    -1.8017  -0.7307   2.2585   3.0508

          k = 0.0000-0.3536 0.5893 (  5896 PWs)   bands (ev):

    -2.0364  -0.4994   2.1315   3.2804

          k =-0.7071 0.2357 0.0000 (  5888 PWs)   bands (ev):

    -1.2823  -1.2823   2.7048   2.7048

          k =-0.7071 0.3536 0.0000 (  5876 PWs)   bands (ev):

    -1.2351  -1.2351   2.4914   2.4914

     highest occupied level (ev):     6.4050

!    total energy              =     -15.74046259 Ry
     Harris-Foulkes estimate   =     -15.74046259 Ry
     estimated scf accuracy    <          1.4E-13 Ry

     The total energy is the sum of the following terms:

     one-electron contribution =       4.90233372 Ry
     hartree contribution      =       1.07997563 Ry
     xc contribution           =      -4.83050081 Ry
     ewald contribution        =     -16.89227112 Ry

     convergence has been achieved in  11 iterations

     Writing output data file si.save

     init_run     :      1.02s CPU      1.06s WALL (       1 calls)
     electrons    :     21.10s CPU     22.20s WALL (       1 calls)

     Called by init_run:
     wfcinit      :      0.88s CPU      0.91s WALL (       1 calls)
     potinit      :      0.04s CPU      0.04s WALL (       1 calls)

     Called by electrons:
     c_bands      :     18.14s CPU     19.06s WALL (      12 calls)
     sum_band     :      2.55s CPU      2.70s WALL (      12 calls)
     v_of_rho     :      0.34s CPU      0.35s WALL (      12 calls)
     mix_rho      :      0.07s CPU      0.10s WALL (      12 calls)

     Called by c_bands:
     init_us_2    :      0.58s CPU      0.55s WALL (    1800 calls)
     ccgdiagg     :     13.90s CPU     14.67s WALL (     864 calls)
     wfcrot       :      4.65s CPU      4.80s WALL (     792 calls)

     Called by sum_band:

     Called by *cgdiagg:
     h_psi        :     17.18s CPU     18.06s WALL (   10538 calls)
     cdiaghg      :      0.03s CPU      0.05s WALL (     792 calls)

     Called by h_psi:
     add_vuspsi   :      0.16s CPU      0.25s WALL (   10538 calls)
     h_1psi       :     12.71s CPU     13.47s WALL (    9746 calls)

     General routines
     calbec       :      0.60s CPU      0.68s WALL (   20284 calls)
     fft          :      0.14s CPU      0.14s WALL (     133 calls)
     fftw         :     17.58s CPU     17.85s WALL (   29860 calls)
     davcio       :      0.00s CPU      0.00s WALL (      72 calls)

     Parallel routines
     fft_scatter  :      2.04s CPU      2.75s WALL (   29993 calls)

     PWSCF        :    22.35s CPU        23.51s WALL


   This run was terminated on:   9: 3: 4   5Apr2016            

=------------------------------------------------------------------------------=
   JOB DONE.
=------------------------------------------------------------------------------=
