
     Program PWSCF v.5.3.0 (svn rev. 11974) starts on  5Apr2016 at  9: 9: 0 

     This program is part of the open-source Quantum ESPRESSO suite
     for quantum simulation of materials; please cite
         "P. Giannozzi et al., J. Phys.:Condens. Matter 21 395502 (2009);
          URL http://www.quantum-espresso.org", 
     in publications or presentations arising from this work. More details at
     http://www.quantum-espresso.org/quote

     Parallel version (MPI), running on     8 processors
     R & G space division:  proc/nbgrp/npool/nimage =       8
     Waiting for input...
     Reading input from standard input

     Current dimensions of program PWSCF are:
     Max number of different atomic species (ntypx) = 10
     Max number of k-points (npk) =  40000
     Max angular momentum in pseudopotentials (lmaxx) =  3

     Subspace diagonalization in iterative solution of the eigenvalue problem:
     a serial algorithm will be used


     Parallelization info
     --------------------
     sticks:   dense  smooth     PW     G-vecs:    dense   smooth      PW
     Min         223     223     63                 6224     6224     965
     Max         224     224     64                 6227     6227     968
     Sum        1789    1789    511                49805    49805    7727



     bravais-lattice index     =            0
     lattice parameter (alat)  =       7.3493  a.u.
     unit-cell volume          =     280.6885 (a.u.)^3
     number of atoms/cell      =            2
     number of atomic types    =            1
     number of electrons       =         8.00
     number of Kohn-Sham states=            4
     kinetic-energy cutoff     =     120.0000  Ry
     charge density cutoff     =     480.0000  Ry
     convergence threshold     =      1.0E-12
     mixing beta               =       0.7000
     number of iterations used =            8  plain     mixing
     Exchange-correlation      =  SLA  PW   PBE  PBE ( 1  4  3  4 0 0)

     celldm(1)=   7.349310  celldm(2)=   0.000000  celldm(3)=   0.000000
     celldm(4)=   0.000000  celldm(5)=   0.000000  celldm(6)=   0.000000

     crystal axes: (cart. coord. in units of alat)
               a(1) = (   0.000000   0.707107   0.707107 )  
               a(2) = (   0.707107   0.000000   0.707107 )  
               a(3) = (   0.707107   0.707107   0.000000 )  

     reciprocal axes: (cart. coord. in units 2 pi/alat)
               b(1) = ( -0.707107  0.707107  0.707107 )  
               b(2) = (  0.707107 -0.707107  0.707107 )  
               b(3) = (  0.707107  0.707107 -0.707107 )  


     PseudoPot. # 1 for Si read from file:
     /home/junhao/espresso/espresso-5.3.0/pseudo/Si.pbe-rrkj.UPF
     MD5 check sum: cf7ab5690cd9a85b22c4813f7e365554
     Pseudo is Norm-conserving, Zval =  4.0
     Generated by new atomic code, or converted to UPF format
     Using radial grid of  883 points,  3 beta functions with: 
                l(1) =   0
                l(2) =   0
                l(3) =   1

     atomic species   valence    mass     pseudopotential
        Si             4.00    28.08550     Si( 1.00)

     24 Sym. Ops. (no inversion) found
          (note: 24 additional sym.ops. were found but ignored
           their fractional translations are incommensurate with FFT grid)


   Cartesian axes

     site n.     atom                  positions (alat units)
         1           Si  tau(   1) = (   0.0000000   0.0000000   0.0000000  )
         2           Si  tau(   2) = (   0.3535534   0.3535534   0.3535534  )

     number of k points=    72
                       cart. coord. in units 2pi/alat
        k(    1) = (   0.0000000   0.0000000   0.0000000), wk =   0.0011574
        k(    2) = (   0.0589256   0.0589256  -0.0589256), wk =   0.0092593
        k(    3) = (   0.1178511   0.1178511  -0.1178511), wk =   0.0092593
        k(    4) = (   0.1767767   0.1767767  -0.1767767), wk =   0.0092593
        k(    5) = (   0.2357023   0.2357023  -0.2357023), wk =   0.0092593
        k(    6) = (   0.2946278   0.2946278  -0.2946278), wk =   0.0092593
        k(    7) = (  -0.3535534  -0.3535534   0.3535534), wk =   0.0046296
        k(    8) = (   0.1178511   0.0000000   0.0000000), wk =   0.0069444
        k(    9) = (   0.1767767   0.0589256  -0.0589256), wk =   0.0277778
        k(   10) = (   0.2357023   0.1178511  -0.1178511), wk =   0.0277778
        k(   11) = (   0.2946278   0.1767767  -0.1767767), wk =   0.0277778
        k(   12) = (   0.3535534   0.2357023  -0.2357023), wk =   0.0277778
        k(   13) = (  -0.2946278  -0.4124790   0.4124790), wk =   0.0277778
        k(   14) = (  -0.2357023  -0.3535534   0.3535534), wk =   0.0277778
        k(   15) = (  -0.1767767  -0.2946278   0.2946278), wk =   0.0277778
        k(   16) = (  -0.1178511  -0.2357023   0.2357023), wk =   0.0277778
        k(   17) = (  -0.0589256  -0.1767767   0.1767767), wk =   0.0277778
        k(   18) = (  -0.0000000  -0.1178511   0.1178511), wk =   0.0138889
        k(   19) = (   0.2357023   0.0000000   0.0000000), wk =   0.0069444
        k(   20) = (   0.2946278   0.0589256  -0.0589256), wk =   0.0277778
        k(   21) = (   0.3535534   0.1178511  -0.1178511), wk =   0.0277778
        k(   22) = (   0.4124790   0.1767767  -0.1767767), wk =   0.0277778
        k(   23) = (  -0.2357023  -0.4714045   0.4714045), wk =   0.0277778
        k(   24) = (  -0.1767767  -0.4124790   0.4124790), wk =   0.0277778
        k(   25) = (  -0.1178511  -0.3535534   0.3535534), wk =   0.0277778
        k(   26) = (  -0.0589256  -0.2946278   0.2946278), wk =   0.0277778
        k(   27) = (   0.0000000  -0.2357023   0.2357023), wk =   0.0138889
        k(   28) = (   0.3535534   0.0000000   0.0000000), wk =   0.0069444
        k(   29) = (   0.4124790   0.0589256  -0.0589256), wk =   0.0277778
        k(   30) = (   0.4714045   0.1178511  -0.1178511), wk =   0.0277778
        k(   31) = (  -0.1767767  -0.5303301   0.5303301), wk =   0.0277778
        k(   32) = (  -0.1178511  -0.4714045   0.4714045), wk =   0.0277778
        k(   33) = (  -0.0589256  -0.4124790   0.4124790), wk =   0.0277778
        k(   34) = (   0.0000000  -0.3535534   0.3535534), wk =   0.0138889
        k(   35) = (   0.4714045   0.0000000   0.0000000), wk =   0.0069444
        k(   36) = (   0.5303301   0.0589256  -0.0589256), wk =   0.0277778
        k(   37) = (  -0.1178511  -0.5892557   0.5892557), wk =   0.0277778
        k(   38) = (  -0.0589256  -0.5303301   0.5303301), wk =   0.0277778
        k(   39) = (  -0.0000000  -0.4714045   0.4714045), wk =   0.0138889
        k(   40) = (   0.5892557   0.0000000   0.0000000), wk =   0.0069444
        k(   41) = (  -0.0589256  -0.6481812   0.6481812), wk =   0.0277778
        k(   42) = (   0.0000000  -0.5892557   0.5892557), wk =   0.0138889
        k(   43) = (  -0.7071068   0.0000000   0.0000000), wk =   0.0034722
        k(   44) = (   0.2357023   0.1178511  -0.0000000), wk =   0.0277778
        k(   45) = (   0.2946278   0.1767767  -0.0589256), wk =   0.0555556
        k(   46) = (   0.3535534   0.2357023  -0.1178511), wk =   0.0555556
        k(   47) = (  -0.2946278  -0.4124790   0.5303301), wk =   0.0555556
        k(   48) = (  -0.2357023  -0.3535534   0.4714045), wk =   0.0277778
        k(   49) = (   0.3535534   0.1178511   0.0000000), wk =   0.0277778
        k(   50) = (   0.4124790   0.1767767  -0.0589256), wk =   0.0555556
        k(   51) = (  -0.2357023  -0.4714045   0.5892557), wk =   0.0555556
        k(   52) = (  -0.1767767  -0.4124790   0.5303301), wk =   0.0555556
        k(   53) = (  -0.1178511  -0.3535534   0.4714045), wk =   0.0555556
        k(   54) = (  -0.0589256  -0.2946278   0.4124790), wk =   0.0555556
        k(   55) = (   0.0000000  -0.2357023   0.3535534), wk =   0.0277778
        k(   56) = (   0.4714045   0.1178511   0.0000000), wk =   0.0277778
        k(   57) = (  -0.1767767  -0.5303301   0.6481812), wk =   0.0555556
        k(   58) = (  -0.1178511  -0.4714045   0.5892557), wk =   0.0555556
        k(   59) = (  -0.0589256  -0.4124790   0.5303301), wk =   0.0555556
        k(   60) = (  -0.0000000  -0.3535534   0.4714045), wk =   0.0277778
        k(   61) = (  -0.1178511  -0.5892557   0.7071068), wk =   0.0277778
        k(   62) = (  -0.0589256  -0.5303301   0.6481812), wk =   0.0555556
        k(   63) = (  -0.0000000  -0.4714045   0.5892557), wk =   0.0277778
        k(   64) = (  -0.7071068   0.1178511   0.0000000), wk =   0.0138889
        k(   65) = (  -0.2357023  -0.4714045   0.7071068), wk =   0.0277778
        k(   66) = (  -0.1767767  -0.4124790   0.6481812), wk =   0.0555556
        k(   67) = (  -0.1178511  -0.3535534   0.5892557), wk =   0.0277778
        k(   68) = (  -0.1178511  -0.4714045   0.7071068), wk =   0.0277778
        k(   69) = (  -0.0589256  -0.4124790   0.6481812), wk =   0.0555556
        k(   70) = (   0.0000000  -0.3535534   0.5892557), wk =   0.0277778
        k(   71) = (  -0.7071068   0.2357023   0.0000000), wk =   0.0138889
        k(   72) = (  -0.7071068   0.3535534   0.0000000), wk =   0.0069444

     Dense  grid:    49805 G-vectors     FFT dimensions: (  54,  54,  54)

     Largest allocated arrays     est. size (Mb)     dimensions
        Kohn-Sham Wavefunctions         0.05 Mb     (     792,    4)
        NL pseudopotentials             0.12 Mb     (     792,   10)
        Each V/rho on FFT grid          0.31 Mb     (   20412)
        Each G-vector array             0.05 Mb     (    6225)
        G-vector shells                 0.00 Mb     (     433)
     Largest temporary arrays     est. size (Mb)     dimensions
        Each subspace H/S matrix        0.00 Mb     (       4,    4)
        Each <psi_i|beta_j> matrix      0.00 Mb     (      10,    4)
        Arrays for rho mixing           2.49 Mb     (   20412,    8)

     Initial potential from superposition of free atoms

     starting charge    7.99889, renormalised to    8.00000
     Starting wfc are    8 randomized atomic wfcs

     total cpu time spent up to now is        1.1 secs

     per-process dynamical memory:    15.8 Mb

     Self-consistent Calculation

     iteration #  1     ecut=   120.00 Ry     beta=0.70
     CG style diagonalization
     ethr =  1.00E-02,  avg # of iterations =  3.0

     Threshold (ethr) on eigenvalues was too large:
     Diagonalizing with lowered threshold

     CG style diagonalization
     ethr =  6.80E-04,  avg # of iterations =  2.1

     total cpu time spent up to now is        3.9 secs

     total energy              =     -15.73922026 Ry
     Harris-Foulkes estimate   =     -15.75114290 Ry
     estimated scf accuracy    <       0.05320765 Ry

     iteration #  2     ecut=   120.00 Ry     beta=0.70
     CG style diagonalization
     ethr =  6.65E-04,  avg # of iterations =  3.0

     total cpu time spent up to now is        5.5 secs

     total energy              =     -15.74108166 Ry
     Harris-Foulkes estimate   =     -15.74118836 Ry
     estimated scf accuracy    <       0.00297357 Ry

     iteration #  3     ecut=   120.00 Ry     beta=0.70
     CG style diagonalization
     ethr =  3.72E-05,  avg # of iterations =  3.8

     total cpu time spent up to now is        7.5 secs

     total energy              =     -15.74172400 Ry
     Harris-Foulkes estimate   =     -15.74176997 Ry
     estimated scf accuracy    <       0.00011779 Ry

     iteration #  4     ecut=   120.00 Ry     beta=0.70
     CG style diagonalization
     ethr =  1.47E-06,  avg # of iterations =  4.2

     total cpu time spent up to now is        9.5 secs

     total energy              =     -15.74176222 Ry
     Harris-Foulkes estimate   =     -15.74177222 Ry
     estimated scf accuracy    <       0.00002653 Ry

     iteration #  5     ecut=   120.00 Ry     beta=0.70
     CG style diagonalization
     ethr =  3.32E-07,  avg # of iterations =  3.4

     total cpu time spent up to now is       11.3 secs

     total energy              =     -15.74176526 Ry
     Harris-Foulkes estimate   =     -15.74176518 Ry
     estimated scf accuracy    <       0.00000035 Ry

     iteration #  6     ecut=   120.00 Ry     beta=0.70
     CG style diagonalization
     ethr =  4.36E-09,  avg # of iterations =  5.2

     total cpu time spent up to now is       13.9 secs

     total energy              =     -15.74176564 Ry
     Harris-Foulkes estimate   =     -15.74176570 Ry
     estimated scf accuracy    <       0.00000014 Ry

     iteration #  7     ecut=   120.00 Ry     beta=0.70
     CG style diagonalization
     ethr =  1.80E-09,  avg # of iterations =  3.5

     total cpu time spent up to now is       15.6 secs

     total energy              =     -15.74176565 Ry
     Harris-Foulkes estimate   =     -15.74176566 Ry
     estimated scf accuracy    <          2.9E-09 Ry

     iteration #  8     ecut=   120.00 Ry     beta=0.70
     CG style diagonalization
     ethr =  3.59E-11,  avg # of iterations =  4.8

     total cpu time spent up to now is       18.0 secs

     total energy              =     -15.74176566 Ry
     Harris-Foulkes estimate   =     -15.74176566 Ry
     estimated scf accuracy    <          5.6E-10 Ry

     iteration #  9     ecut=   120.00 Ry     beta=0.70
     CG style diagonalization
     ethr =  7.05E-12,  avg # of iterations =  3.4

     total cpu time spent up to now is       19.8 secs

     total energy              =     -15.74176566 Ry
     Harris-Foulkes estimate   =     -15.74176566 Ry
     estimated scf accuracy    <          9.0E-12 Ry

     iteration # 10     ecut=   120.00 Ry     beta=0.70
     CG style diagonalization
     ethr =  1.13E-13,  avg # of iterations =  4.9

     total cpu time spent up to now is       22.2 secs

     End of self-consistent calculation

          k = 0.0000 0.0000 0.0000 (  6231 PWs)   bands (ev):

    -5.8096   5.8369   5.8369   5.8369

          k = 0.0589 0.0589-0.0589 (  6225 PWs)   bands (ev):

    -5.7215   4.9910   5.6997   5.6997

          k = 0.1179 0.1179-0.1179 (  6216 PWs)   bands (ev):

    -5.4603   3.5081   5.4044   5.4044

          k = 0.1768 0.1768-0.1768 (  6225 PWs)   bands (ev):

    -5.0367   2.0085   5.1042   5.1042

          k = 0.2357 0.2357-0.2357 (  6237 PWs)   bands (ev):

    -4.4806   0.6469   4.8694   4.8694

          k = 0.2946 0.2946-0.2946 (  6231 PWs)   bands (ev):

    -3.8860  -0.4417   4.7241   4.7241

          k =-0.3536-0.3536 0.3536 (  6230 PWs)   bands (ev):

    -3.5689  -0.9250   4.6753   4.6753

          k = 0.1179 0.0000 0.0000 (  6230 PWs)   bands (ev):

    -5.6920   5.1311   5.4285   5.4285

          k = 0.1768 0.0589-0.0589 (  6207 PWs)   bands (ev):

    -5.4880   3.9383   5.0788   5.2508

          k = 0.2357 0.1179-0.1179 (  6221 PWs)   bands (ev):

    -5.1170   2.4842   4.7751   4.9368

          k = 0.2946 0.1768-0.1768 (  6229 PWs)   bands (ev):

    -4.6000   1.0952   4.5698   4.5944

          k = 0.3536 0.2357-0.2357 (  6228 PWs)   bands (ev):

    -3.9989  -0.0915   4.3076   4.4802

          k =-0.2946-0.4125 0.4125 (  6244 PWs)   bands (ev):

    -3.5316  -0.8291   4.1105   4.5074

          k =-0.2357-0.3536 0.3536 (  6241 PWs)   bands (ev):

    -3.6461  -0.6595   4.0207   4.6438

          k =-0.1768-0.2946 0.2946 (  6233 PWs)   bands (ev):

    -4.2022   0.2747   4.0507   4.8743

          k =-0.1179-0.2357 0.2357 (  6224 PWs)   bands (ev):

    -4.7873   1.5439   4.2096   5.1737

          k =-0.0589-0.1768 0.1768 (  6219 PWs)   bands (ev):

    -5.2591   2.9544   4.5089   5.4919

          k =-0.0000-0.1179 0.1179 (  6211 PWs)   bands (ev):

    -5.5756   4.2670   5.0162   5.7201

          k = 0.2357 0.0000 0.0000 (  6234 PWs)   bands (ev):

    -5.3413   3.8007   4.6958   4.6958

          k = 0.2946 0.0589-0.0589 (  6226 PWs)   bands (ev):

    -5.0250   2.7543   4.3530   4.3724

          k = 0.3536 0.1179-0.1179 (  6243 PWs)   bands (ev):

    -4.5538   1.4934   3.9125   4.1594

          k = 0.4125 0.1768-0.1768 (  6231 PWs)   bands (ev):

    -3.9687   0.3052   3.4868   4.0761

          k =-0.2357-0.4714 0.4714 (  6234 PWs)   bands (ev):

    -3.4110  -0.5902   3.1544   4.1258

          k =-0.1768-0.4125 0.4125 (  6230 PWs)   bands (ev):

    -3.3027  -0.7420   2.9503   4.3014

          k =-0.1179-0.3536 0.3536 (  6229 PWs)   bands (ev):

    -3.7788  -0.0161   2.9008   4.5842

          k =-0.0589-0.2946 0.2946 (  6238 PWs)   bands (ev):

    -4.3788   1.0856   3.0489   4.9375

          k = 0.0000-0.2357 0.2357 (  6225 PWs)   bands (ev):

    -4.8919   2.1875   3.5295   5.2872

          k = 0.3536 0.0000 0.0000 (  6254 PWs)   bands (ev):

    -4.7632   2.3566   4.0227   4.0227

          k = 0.4125 0.0589-0.0589 (  6240 PWs)   bands (ev):

    -4.3414   1.4772   3.5755   3.7837

          k = 0.4714 0.1179-0.1179 (  6226 PWs)   bands (ev):

    -3.7868   0.4875   2.9679   3.6787

          k =-0.1768-0.5303 0.5303 (  6244 PWs)   bands (ev):

    -3.1881  -0.3998   2.4407   3.7146

          k =-0.1179-0.4714 0.4714 (  6246 PWs)   bands (ev):

    -2.8811  -0.7933   2.0920   3.8870

          k =-0.0589-0.4125 0.4125 (  6243 PWs)   bands (ev):

    -3.2399  -0.3223   1.9820   4.1795

          k = 0.0000-0.3536 0.3536 (  6211 PWs)   bands (ev):

    -3.8370   0.4694   2.2409   4.5558

          k = 0.4714 0.0000 0.0000 (  6222 PWs)   bands (ev):

    -3.9684   0.9072   3.5118   3.5118

          k = 0.5303 0.0589-0.0589 (  6226 PWs)   bands (ev):

    -3.4522   0.1467   3.0502   3.3732

          k =-0.1179-0.5893 0.5893 (  6233 PWs)   bands (ev):

    -2.8470  -0.5956   2.3577   3.3783

          k =-0.0589-0.5303 0.5303 (  6238 PWs)   bands (ev):

    -2.4009  -1.0651   1.8056   3.5259

          k =-0.0000-0.4714 0.4714 (  6253 PWs)   bands (ev):

    -2.6650  -0.7866   1.6123   3.8034

          k = 0.5893 0.0000 0.0000 (  6230 PWs)   bands (ev):

    -2.9738  -0.4961   3.1967   3.1967

          k =-0.0589-0.6482 0.6482 (  6246 PWs)   bands (ev):

    -2.3820  -1.1616   2.7895   3.1638

          k = 0.0000-0.5893 0.5893 (  6238 PWs)   bands (ev):

    -1.9484  -1.5492   2.1547   3.2765

          k =-0.7071 0.0000 0.0000 (  6218 PWs)   bands (ev):

    -1.8047  -1.8047   3.0905   3.0905

          k = 0.2357 0.1179-0.0000 (  6230 PWs)   bands (ev):

    -5.2282   3.1489   4.2764   5.1517

          k = 0.2946 0.1768-0.0589 (  6222 PWs)   bands (ev):

    -4.8067   1.9496   3.7573   4.8876

          k = 0.3536 0.2357-0.1179 (  6229 PWs)   bands (ev):

    -4.2523   0.6956   3.4890   4.5741

          k =-0.2946-0.4125 0.5303 (  6238 PWs)   bands (ev):

    -3.6562  -0.3520   3.3604   4.3386

          k =-0.2357-0.3536 0.4714 (  6242 PWs)   bands (ev):

    -3.3348  -0.8277   3.3239   4.2513

          k = 0.3536 0.1179 0.0000 (  6232 PWs)   bands (ev):

    -4.6567   1.9757   3.6053   4.2711

          k = 0.4125 0.1768-0.0589 (  6233 PWs)   bands (ev):

    -4.1429   0.9627   3.0836   3.9966

          k =-0.2357-0.4714 0.5893 (  6227 PWs)   bands (ev):

    -3.5417  -0.0488   2.7333   3.7962

          k =-0.1768-0.4125 0.5303 (  6234 PWs)   bands (ev):

    -3.0680  -0.7229   2.4944   3.7788

          k =-0.1179-0.3536 0.4714 (  6234 PWs)   bands (ev):

    -3.1973  -0.5443   2.3835   3.9435

          k =-0.0589-0.2946 0.4125 (  6229 PWs)   bands (ev):

    -3.7622   0.2944   2.4626   4.2463

          k = 0.0000-0.2357 0.3536 (  6221 PWs)   bands (ev):

    -4.3424   1.2380   2.8688   4.6107

          k = 0.4714 0.1179 0.0000 (  6233 PWs)   bands (ev):

    -3.8738   0.7391   3.1127   3.5221

          k =-0.1768-0.5303 0.6482 (  6233 PWs)   bands (ev):

    -3.2904  -0.0681   2.5504   3.3155

          k =-0.1179-0.4714 0.5893 (  6237 PWs)   bands (ev):

    -2.7262  -0.7533   2.0510   3.3226

          k =-0.0589-0.4125 0.5303 (  6235 PWs)   bands (ev):

    -2.6606  -0.8191   1.7757   3.5126

          k =-0.0000-0.3536 0.4714 (  6230 PWs)   bands (ev):

    -3.1757  -0.2506   1.8604   3.8432

          k =-0.1179-0.5893 0.7071 (  6233 PWs)   bands (ev):

    -2.9003  -0.5330   2.8386   3.0283

          k =-0.0589-0.5303 0.6482 (  6223 PWs)   bands (ev):

    -2.2958  -1.1551   2.2438   2.9859

          k =-0.0000-0.4714 0.5893 (  6223 PWs)   bands (ev):

    -2.1531  -1.2604   1.7700   3.1752

          k =-0.7071 0.1179 0.0000 (  6224 PWs)   bands (ev):

    -1.7696  -1.7696   2.8048   2.8048

          k =-0.2357-0.4714 0.7071 (  6225 PWs)   bands (ev):

    -3.5991   0.3008   2.4159   3.6378

          k =-0.1768-0.4125 0.6482 (  6229 PWs)   bands (ev):

    -2.9998  -0.4410   2.0800   3.3172

          k =-0.1179-0.3536 0.5893 (  6236 PWs)   bands (ev):

    -2.6562  -0.8501   1.9881   3.1940

          k =-0.1179-0.4714 0.7071 (  6224 PWs)   bands (ev):

    -2.6971  -0.6739   2.2265   2.8233

          k =-0.0589-0.4125 0.6482 (  6226 PWs)   bands (ev):

    -2.1963  -1.1627   1.9278   2.6755

          k = 0.0000-0.3536 0.5893 (  6219 PWs)   bands (ev):

    -2.4199  -0.9391   1.8082   2.8906

          k =-0.7071 0.2357 0.0000 (  6238 PWs)   bands (ev):

    -1.6949  -1.6949   2.3478   2.3478

          k =-0.7071 0.3536 0.0000 (  6228 PWs)   bands (ev):

    -1.6548  -1.6548   2.1519   2.1519

     highest occupied level (ev):     5.8369

!    total energy              =     -15.74176566 Ry
     Harris-Foulkes estimate   =     -15.74176566 Ry
     estimated scf accuracy    <          5.0E-13 Ry

     The total energy is the sum of the following terms:

     one-electron contribution =       4.48843612 Ry
     hartree contribution      =       1.12738151 Ry
     xc contribution           =      -4.77244436 Ry
     ewald contribution        =     -16.58513892 Ry

     convergence has been achieved in  10 iterations

     Writing output data file si.save

     init_run     :      1.03s CPU      1.09s WALL (       1 calls)
     electrons    :     19.81s CPU     21.06s WALL (       1 calls)

     Called by init_run:
     wfcinit      :      0.89s CPU      0.93s WALL (       1 calls)
     potinit      :      0.04s CPU      0.04s WALL (       1 calls)

     Called by electrons:
     c_bands      :     17.12s CPU     18.23s WALL (      11 calls)
     sum_band     :      2.33s CPU      2.45s WALL (      11 calls)
     v_of_rho     :      0.31s CPU      0.32s WALL (      11 calls)
     mix_rho      :      0.06s CPU      0.06s WALL (      11 calls)

     Called by c_bands:
     init_us_2    :      0.55s CPU      0.49s WALL (    1656 calls)
     ccgdiagg     :     13.29s CPU     14.18s WALL (     792 calls)
     wfcrot       :      4.26s CPU      4.51s WALL (     720 calls)

     Called by sum_band:

     Called by *cgdiagg:
     h_psi        :     16.27s CPU     17.28s WALL (   10036 calls)
     cdiaghg      :      0.04s CPU      0.05s WALL (     720 calls)

     Called by h_psi:
     add_vuspsi   :      0.24s CPU      0.25s WALL (   10036 calls)
     h_1psi       :     12.19s CPU     12.97s WALL (    9316 calls)

     General routines
     calbec       :      0.65s CPU      0.71s WALL (   19352 calls)
     fft          :      0.13s CPU      0.14s WALL (     122 calls)
     fftw         :     16.62s CPU     17.04s WALL (   28136 calls)
     davcio       :      0.00s CPU      0.00s WALL (      72 calls)

     Parallel routines
     fft_scatter  :      2.18s CPU      3.12s WALL (   28258 calls)

     PWSCF        :    21.08s CPU        22.40s WALL


   This run was terminated on:   9: 9:22   5Apr2016            

=------------------------------------------------------------------------------=
   JOB DONE.
=------------------------------------------------------------------------------=
