
     Program PWSCF v.5.3.0 (svn rev. 11974) starts on  5Apr2016 at  9:15:15 

     This program is part of the open-source Quantum ESPRESSO suite
     for quantum simulation of materials; please cite
         "P. Giannozzi et al., J. Phys.:Condens. Matter 21 395502 (2009);
          URL http://www.quantum-espresso.org", 
     in publications or presentations arising from this work. More details at
     http://www.quantum-espresso.org/quote

     Parallel version (MPI), running on     8 processors
     R & G space division:  proc/nbgrp/npool/nimage =       8
     Waiting for input...
     Reading input from standard input

     Current dimensions of program PWSCF are:
     Max number of different atomic species (ntypx) = 10
     Max number of k-points (npk) =  40000
     Max angular momentum in pseudopotentials (lmaxx) =  3

     Subspace diagonalization in iterative solution of the eigenvalue problem:
     a serial algorithm will be used


     Parallelization info
     --------------------
     sticks:   dense  smooth     PW     G-vecs:    dense   smooth      PW
     Min         239     239     69                 6919     6919    1055
     Max         240     240     71                 6922     6922    1056
     Sum        1915    1915    559                55369    55369    8441



     bravais-lattice index     =            0
     lattice parameter (alat)  =       7.6166  a.u.
     unit-cell volume          =     312.4361 (a.u.)^3
     number of atoms/cell      =            2
     number of atomic types    =            1
     number of electrons       =         8.00
     number of Kohn-Sham states=            4
     kinetic-energy cutoff     =     120.0000  Ry
     charge density cutoff     =     480.0000  Ry
     convergence threshold     =      1.0E-12
     mixing beta               =       0.7000
     number of iterations used =            8  plain     mixing
     Exchange-correlation      =  SLA  PW   PBE  PBE ( 1  4  3  4 0 0)

     celldm(1)=   7.616558  celldm(2)=   0.000000  celldm(3)=   0.000000
     celldm(4)=   0.000000  celldm(5)=   0.000000  celldm(6)=   0.000000

     crystal axes: (cart. coord. in units of alat)
               a(1) = (   0.000000   0.707107   0.707107 )  
               a(2) = (   0.707107   0.000000   0.707107 )  
               a(3) = (   0.707107   0.707107   0.000000 )  

     reciprocal axes: (cart. coord. in units 2 pi/alat)
               b(1) = ( -0.707107  0.707107  0.707107 )  
               b(2) = (  0.707107 -0.707107  0.707107 )  
               b(3) = (  0.707107  0.707107 -0.707107 )  


     PseudoPot. # 1 for Si read from file:
     /home/junhao/espresso/espresso-5.3.0/pseudo/Si.pbe-rrkj.UPF
     MD5 check sum: cf7ab5690cd9a85b22c4813f7e365554
     Pseudo is Norm-conserving, Zval =  4.0
     Generated by new atomic code, or converted to UPF format
     Using radial grid of  883 points,  3 beta functions with: 
                l(1) =   0
                l(2) =   0
                l(3) =   1

     atomic species   valence    mass     pseudopotential
        Si             4.00    28.08550     Si( 1.00)

     24 Sym. Ops. (no inversion) found
          (note: 24 additional sym.ops. were found but ignored
           their fractional translations are incommensurate with FFT grid)


   Cartesian axes

     site n.     atom                  positions (alat units)
         1           Si  tau(   1) = (   0.0000000   0.0000000   0.0000000  )
         2           Si  tau(   2) = (   0.3535534   0.3535534   0.3535534  )

     number of k points=    72
                       cart. coord. in units 2pi/alat
        k(    1) = (   0.0000000   0.0000000   0.0000000), wk =   0.0011574
        k(    2) = (   0.0589256   0.0589256  -0.0589256), wk =   0.0092593
        k(    3) = (   0.1178511   0.1178511  -0.1178511), wk =   0.0092593
        k(    4) = (   0.1767767   0.1767767  -0.1767767), wk =   0.0092593
        k(    5) = (   0.2357023   0.2357023  -0.2357023), wk =   0.0092593
        k(    6) = (   0.2946278   0.2946278  -0.2946278), wk =   0.0092593
        k(    7) = (  -0.3535534  -0.3535534   0.3535534), wk =   0.0046296
        k(    8) = (   0.1178511   0.0000000   0.0000000), wk =   0.0069444
        k(    9) = (   0.1767767   0.0589256  -0.0589256), wk =   0.0277778
        k(   10) = (   0.2357023   0.1178511  -0.1178511), wk =   0.0277778
        k(   11) = (   0.2946278   0.1767767  -0.1767767), wk =   0.0277778
        k(   12) = (   0.3535534   0.2357023  -0.2357023), wk =   0.0277778
        k(   13) = (  -0.2946278  -0.4124790   0.4124790), wk =   0.0277778
        k(   14) = (  -0.2357023  -0.3535534   0.3535534), wk =   0.0277778
        k(   15) = (  -0.1767767  -0.2946278   0.2946278), wk =   0.0277778
        k(   16) = (  -0.1178511  -0.2357023   0.2357023), wk =   0.0277778
        k(   17) = (  -0.0589256  -0.1767767   0.1767767), wk =   0.0277778
        k(   18) = (  -0.0000000  -0.1178511   0.1178511), wk =   0.0138889
        k(   19) = (   0.2357023   0.0000000   0.0000000), wk =   0.0069444
        k(   20) = (   0.2946278   0.0589256  -0.0589256), wk =   0.0277778
        k(   21) = (   0.3535534   0.1178511  -0.1178511), wk =   0.0277778
        k(   22) = (   0.4124790   0.1767767  -0.1767767), wk =   0.0277778
        k(   23) = (  -0.2357023  -0.4714045   0.4714045), wk =   0.0277778
        k(   24) = (  -0.1767767  -0.4124790   0.4124790), wk =   0.0277778
        k(   25) = (  -0.1178511  -0.3535534   0.3535534), wk =   0.0277778
        k(   26) = (  -0.0589256  -0.2946278   0.2946278), wk =   0.0277778
        k(   27) = (   0.0000000  -0.2357023   0.2357023), wk =   0.0138889
        k(   28) = (   0.3535534   0.0000000   0.0000000), wk =   0.0069444
        k(   29) = (   0.4124790   0.0589256  -0.0589256), wk =   0.0277778
        k(   30) = (   0.4714045   0.1178511  -0.1178511), wk =   0.0277778
        k(   31) = (  -0.1767767  -0.5303301   0.5303301), wk =   0.0277778
        k(   32) = (  -0.1178511  -0.4714045   0.4714045), wk =   0.0277778
        k(   33) = (  -0.0589256  -0.4124790   0.4124790), wk =   0.0277778
        k(   34) = (   0.0000000  -0.3535534   0.3535534), wk =   0.0138889
        k(   35) = (   0.4714045   0.0000000   0.0000000), wk =   0.0069444
        k(   36) = (   0.5303301   0.0589256  -0.0589256), wk =   0.0277778
        k(   37) = (  -0.1178511  -0.5892557   0.5892557), wk =   0.0277778
        k(   38) = (  -0.0589256  -0.5303301   0.5303301), wk =   0.0277778
        k(   39) = (  -0.0000000  -0.4714045   0.4714045), wk =   0.0138889
        k(   40) = (   0.5892557   0.0000000   0.0000000), wk =   0.0069444
        k(   41) = (  -0.0589256  -0.6481812   0.6481812), wk =   0.0277778
        k(   42) = (   0.0000000  -0.5892557   0.5892557), wk =   0.0138889
        k(   43) = (  -0.7071068   0.0000000   0.0000000), wk =   0.0034722
        k(   44) = (   0.2357023   0.1178511  -0.0000000), wk =   0.0277778
        k(   45) = (   0.2946278   0.1767767  -0.0589256), wk =   0.0555556
        k(   46) = (   0.3535534   0.2357023  -0.1178511), wk =   0.0555556
        k(   47) = (  -0.2946278  -0.4124790   0.5303301), wk =   0.0555556
        k(   48) = (  -0.2357023  -0.3535534   0.4714045), wk =   0.0277778
        k(   49) = (   0.3535534   0.1178511   0.0000000), wk =   0.0277778
        k(   50) = (   0.4124790   0.1767767  -0.0589256), wk =   0.0555556
        k(   51) = (  -0.2357023  -0.4714045   0.5892557), wk =   0.0555556
        k(   52) = (  -0.1767767  -0.4124790   0.5303301), wk =   0.0555556
        k(   53) = (  -0.1178511  -0.3535534   0.4714045), wk =   0.0555556
        k(   54) = (  -0.0589256  -0.2946278   0.4124790), wk =   0.0555556
        k(   55) = (   0.0000000  -0.2357023   0.3535534), wk =   0.0277778
        k(   56) = (   0.4714045   0.1178511   0.0000000), wk =   0.0277778
        k(   57) = (  -0.1767767  -0.5303301   0.6481812), wk =   0.0555556
        k(   58) = (  -0.1178511  -0.4714045   0.5892557), wk =   0.0555556
        k(   59) = (  -0.0589256  -0.4124790   0.5303301), wk =   0.0555556
        k(   60) = (  -0.0000000  -0.3535534   0.4714045), wk =   0.0277778
        k(   61) = (  -0.1178511  -0.5892557   0.7071068), wk =   0.0277778
        k(   62) = (  -0.0589256  -0.5303301   0.6481812), wk =   0.0555556
        k(   63) = (  -0.0000000  -0.4714045   0.5892557), wk =   0.0277778
        k(   64) = (  -0.7071068   0.1178511   0.0000000), wk =   0.0138889
        k(   65) = (  -0.2357023  -0.4714045   0.7071068), wk =   0.0277778
        k(   66) = (  -0.1767767  -0.4124790   0.6481812), wk =   0.0555556
        k(   67) = (  -0.1178511  -0.3535534   0.5892557), wk =   0.0277778
        k(   68) = (  -0.1178511  -0.4714045   0.7071068), wk =   0.0277778
        k(   69) = (  -0.0589256  -0.4124790   0.6481812), wk =   0.0555556
        k(   70) = (   0.0000000  -0.3535534   0.5892557), wk =   0.0277778
        k(   71) = (  -0.7071068   0.2357023   0.0000000), wk =   0.0138889
        k(   72) = (  -0.7071068   0.3535534   0.0000000), wk =   0.0069444

     Dense  grid:    55369 G-vectors     FFT dimensions: (  54,  54,  54)

     Largest allocated arrays     est. size (Mb)     dimensions
        Kohn-Sham Wavefunctions         0.05 Mb     (     881,    4)
        NL pseudopotentials             0.13 Mb     (     881,   10)
        Each V/rho on FFT grid          0.31 Mb     (   20412)
        Each G-vector array             0.05 Mb     (    6922)
        G-vector shells                 0.00 Mb     (     467)
     Largest temporary arrays     est. size (Mb)     dimensions
        Each subspace H/S matrix        0.00 Mb     (       4,    4)
        Each <psi_i|beta_j> matrix      0.00 Mb     (      10,    4)
        Arrays for rho mixing           2.49 Mb     (   20412,    8)

     Initial potential from superposition of free atoms

     starting charge    7.99889, renormalised to    8.00000
     Starting wfc are    8 randomized atomic wfcs

     total cpu time spent up to now is        1.2 secs

     per-process dynamical memory:    16.4 Mb

     Self-consistent Calculation

     iteration #  1     ecut=   120.00 Ry     beta=0.70
     CG style diagonalization
     ethr =  1.00E-02,  avg # of iterations =  2.8

     Threshold (ethr) on eigenvalues was too large:
     Diagonalizing with lowered threshold

     CG style diagonalization
     ethr =  5.17E-04,  avg # of iterations =  2.5

     total cpu time spent up to now is        4.2 secs

     total energy              =     -15.72932011 Ry
     Harris-Foulkes estimate   =     -15.73766538 Ry
     estimated scf accuracy    <       0.04454371 Ry

     iteration #  2     ecut=   120.00 Ry     beta=0.70
     CG style diagonalization
     ethr =  5.57E-04,  avg # of iterations =  3.0

     total cpu time spent up to now is        5.9 secs

     total energy              =     -15.73057707 Ry
     Harris-Foulkes estimate   =     -15.73070579 Ry
     estimated scf accuracy    <       0.00279029 Ry

     iteration #  3     ecut=   120.00 Ry     beta=0.70
     CG style diagonalization
     ethr =  3.49E-05,  avg # of iterations =  3.5

     total cpu time spent up to now is        7.8 secs

     total energy              =     -15.73102039 Ry
     Harris-Foulkes estimate   =     -15.73104697 Ry
     estimated scf accuracy    <       0.00007381 Ry

     iteration #  4     ecut=   120.00 Ry     beta=0.70
     CG style diagonalization
     ethr =  9.23E-07,  avg # of iterations =  4.5

     total cpu time spent up to now is       10.1 secs

     total energy              =     -15.73107514 Ry
     Harris-Foulkes estimate   =     -15.73107706 Ry
     estimated scf accuracy    <       0.00000518 Ry

     iteration #  5     ecut=   120.00 Ry     beta=0.70
     CG style diagonalization
     ethr =  6.48E-08,  avg # of iterations =  4.2

     total cpu time spent up to now is       12.3 secs

     total energy              =     -15.73107677 Ry
     Harris-Foulkes estimate   =     -15.73107672 Ry
     estimated scf accuracy    <       0.00000002 Ry

     iteration #  6     ecut=   120.00 Ry     beta=0.70
     CG style diagonalization
     ethr =  2.83E-10,  avg # of iterations =  5.8

     total cpu time spent up to now is       15.3 secs

     total energy              =     -15.73107683 Ry
     Harris-Foulkes estimate   =     -15.73107689 Ry
     estimated scf accuracy    <       0.00000014 Ry

     iteration #  7     ecut=   120.00 Ry     beta=0.70
     CG style diagonalization
     ethr =  2.83E-10,  avg # of iterations =  4.1

     total cpu time spent up to now is       17.5 secs

     total energy              =     -15.73107685 Ry
     Harris-Foulkes estimate   =     -15.73107685 Ry
     estimated scf accuracy    <          5.9E-10 Ry

     iteration #  8     ecut=   120.00 Ry     beta=0.70
     CG style diagonalization
     ethr =  7.35E-12,  avg # of iterations =  4.8

     total cpu time spent up to now is       20.0 secs

     total energy              =     -15.73107685 Ry
     Harris-Foulkes estimate   =     -15.73107685 Ry
     estimated scf accuracy    <          9.9E-12 Ry

     iteration #  9     ecut=   120.00 Ry     beta=0.70
     CG style diagonalization
     ethr =  1.23E-13,  avg # of iterations =  4.6

     total cpu time spent up to now is       22.4 secs

     total energy              =     -15.73107685 Ry
     Harris-Foulkes estimate   =     -15.73107685 Ry
     estimated scf accuracy    <          8.1E-12 Ry

     iteration # 10     ecut=   120.00 Ry     beta=0.70
     CG style diagonalization
     ethr =  1.01E-13,  avg # of iterations =  3.2

     total cpu time spent up to now is       24.1 secs

     End of self-consistent calculation

          k = 0.0000 0.0000 0.0000 (  6879 PWs)   bands (ev):

    -6.1657   4.8086   4.8086   4.8086

          k = 0.0589 0.0589-0.0589 (  6918 PWs)   bands (ev):

    -6.0855   3.9285   4.6862   4.6862

          k = 0.1179 0.1179-0.1179 (  6928 PWs)   bands (ev):

    -5.8482   2.5185   4.4182   4.4182

          k = 0.1768 0.1768-0.1768 (  6916 PWs)   bands (ev):

    -5.4648   1.1307   4.1411   4.1411

          k = 0.2357 0.2357-0.2357 (  6952 PWs)   bands (ev):

    -4.9659  -0.1142   3.9217   3.9217

          k = 0.2946 0.2946-0.2946 (  6931 PWs)   bands (ev):

    -4.4431  -1.0934   3.7849   3.7849

          k =-0.3536-0.3536 0.3536 (  6934 PWs)   bands (ev):

    -4.1738  -1.5161   3.7386   3.7386

          k = 0.1179 0.0000 0.0000 (  6923 PWs)   bands (ev):

    -6.0587   3.9859   4.4506   4.4506

          k = 0.1768 0.0589-0.0589 (  6932 PWs)   bands (ev):

    -5.8731   2.8804   4.1355   4.2535

          k = 0.2357 0.1179-0.1179 (  6943 PWs)   bands (ev):

    -5.5368   1.5447   3.8559   3.9565

          k = 0.2946 0.1768-0.1768 (  6942 PWs)   bands (ev):

    -5.0711   0.2773   3.6379   3.6629

          k = 0.3536 0.2357-0.2357 (  6952 PWs)   bands (ev):

    -4.5378  -0.7938   3.3740   3.5744

          k =-0.2946-0.4125 0.4125 (  6950 PWs)   bands (ev):

    -4.1362  -1.4436   3.1968   3.5933

          k =-0.2357-0.3536 0.3536 (  6948 PWs)   bands (ev):

    -4.2330  -1.2961   3.1222   3.7133

          k =-0.1768-0.2946 0.2946 (  6931 PWs)   bands (ev):

    -4.7169  -0.4650   3.1608   3.9213

          k =-0.1179-0.2357 0.2357 (  6924 PWs)   bands (ev):

    -5.2394   0.6852   3.3206   4.1940

          k =-0.0589-0.1768 0.1768 (  6942 PWs)   bands (ev):

    -5.6656   1.9733   3.6124   4.4847

          k =-0.0000-0.1179 0.1179 (  6935 PWs)   bands (ev):

    -5.9528   3.1942   4.0870   4.6950

          k = 0.2357 0.0000 0.0000 (  6951 PWs)   bands (ev):

    -5.7395   2.6541   3.7922   3.7922

          k = 0.2946 0.0589-0.0589 (  6943 PWs)   bands (ev):

    -5.4523   1.7082   3.4542   3.4967

          k = 0.3536 0.1179-0.1179 (  6939 PWs)   bands (ev):

    -5.0264   0.5782   3.0342   3.2987

          k = 0.4125 0.1768-0.1768 (  6940 PWs)   bands (ev):

    -4.5034  -0.4854   2.6377   3.2176

          k =-0.2357-0.4714 0.4714 (  6944 PWs)   bands (ev):

    -4.0172  -1.2749   2.3348   3.2575

          k =-0.1768-0.4125 0.4125 (  6949 PWs)   bands (ev):

    -3.9264  -1.4048   2.1570   3.4121

          k =-0.1179-0.3536 0.3536 (  6950 PWs)   bands (ev):

    -4.3377  -0.7695   2.1290   3.6648

          k =-0.0589-0.2946 0.2946 (  6934 PWs)   bands (ev):

    -4.8709   0.2114   2.2917   3.9818

          k = 0.0000-0.2357 0.2357 (  6941 PWs)   bands (ev):

    -5.3330   1.2133   2.7503   4.2963

          k = 0.3536 0.0000 0.0000 (  6971 PWs)   bands (ev):

    -5.2138   1.2861   3.1794   3.1794

          k = 0.4125 0.0589-0.0589 (  6943 PWs)   bands (ev):

    -4.8314   0.4840   2.7732   2.9597

          k = 0.4714 0.1179-0.1179 (  6941 PWs)   bands (ev):

    -4.3325  -0.4037   2.2221   2.8609

          k =-0.1768-0.5303 0.5303 (  6928 PWs)   bands (ev):

    -3.8036  -1.1870   1.7423   2.8899

          k =-0.1179-0.4714 0.4714 (  6925 PWs)   bands (ev):

    -3.5433  -1.5231   1.4311   3.0430

          k =-0.0589-0.4125 0.4125 (  6946 PWs)   bands (ev):

    -3.8555  -1.1134   1.3473   3.3049

          k = 0.0000-0.3536 0.3536 (  6951 PWs)   bands (ev):

    -4.3846  -0.4011   1.5928   3.6416

          k = 0.4714 0.0000 0.0000 (  6967 PWs)   bands (ev):

    -4.4917  -0.0552   2.7118   2.7118

          k = 0.5303 0.0589-0.0589 (  6951 PWs)   bands (ev):

    -4.0246  -0.7515   2.3074   2.5838

          k =-0.1179-0.5893 0.5893 (  6937 PWs)   bands (ev):

    -3.4838  -1.4259   1.7030   2.5864

          k =-0.0589-0.5303 0.5303 (  6930 PWs)   bands (ev):

    -3.1010  -1.8374   1.2197   2.7184

          k =-0.0000-0.4714 0.4714 (  6895 PWs)   bands (ev):

    -3.3427  -1.5766   1.0486   2.9679

          k = 0.5893 0.0000 0.0000 (  6954 PWs)   bands (ev):

    -3.5888  -1.3381   2.4226   2.4226

          k =-0.0589-0.6482 0.6482 (  6946 PWs)   bands (ev):

    -3.0545  -1.9459   2.0735   2.3917

          k = 0.0000-0.5893 0.5893 (  6920 PWs)   bands (ev):

    -2.6823  -2.2891   1.5286   2.4932

          k =-0.7071 0.0000 0.0000 (  6918 PWs)   bands (ev):

    -2.5276  -2.5276   2.3250   2.3250

          k = 0.2357 0.1179-0.0000 (  6928 PWs)   bands (ev):

    -5.6371   2.1039   3.4214   4.1686

          k = 0.2946 0.1768-0.0589 (  6934 PWs)   bands (ev):

    -5.2557   1.0090   2.9304   3.9323

          k = 0.3536 0.2357-0.1179 (  6941 PWs)   bands (ev):

    -4.7580  -0.1187   2.6583   3.6547

          k =-0.2946-0.4125 0.5303 (  6937 PWs)   bands (ev):

    -4.2329  -1.0518   2.5215   3.4486

          k =-0.2357-0.3536 0.4714 (  6916 PWs)   bands (ev):

    -3.9590  -1.4655   2.4808   3.3730

          k = 0.3536 0.1179 0.0000 (  6936 PWs)   bands (ev):

    -5.1183   0.9665   2.8119   3.3873

          k = 0.4125 0.1768-0.0589 (  6938 PWs)   bands (ev):

    -4.6550   0.0488   2.3259   3.1483

          k =-0.2357-0.4714 0.5893 (  6945 PWs)   bands (ev):

    -4.1200  -0.8481   1.9865   2.9752

          k =-0.1768-0.4125 0.5303 (  6924 PWs)   bands (ev):

    -3.7110  -1.4332   1.7631   2.9601

          k =-0.1179-0.3536 0.4714 (  6933 PWs)   bands (ev):

    -3.8226  -1.2785   1.6729   3.1042

          k =-0.0589-0.2946 0.4125 (  6937 PWs)   bands (ev):

    -4.3176  -0.5436   1.7687   3.3707

          k = 0.0000-0.2357 0.3536 (  6944 PWs)   bands (ev):

    -4.8365   0.3093   2.1539   3.6911

          k = 0.4714 0.1179 0.0000 (  6946 PWs)   bands (ev):

    -4.4081  -0.2030   2.3640   2.7296

          k =-0.1768-0.5303 0.6482 (  6941 PWs)   bands (ev):

    -3.8848  -0.9382   1.8640   2.5493

          k =-0.1179-0.4714 0.5893 (  6931 PWs)   bands (ev):

    -3.3899  -1.5450   1.4202   2.5540

          k =-0.0589-0.4125 0.5303 (  6926 PWs)   bands (ev):

    -3.3399  -1.5962   1.1807   2.7218

          k =-0.0000-0.3536 0.4714 (  6931 PWs)   bands (ev):

    -3.7939  -1.0833   1.2593   3.0152

          k =-0.1179-0.5893 0.7071 (  6942 PWs)   bands (ev):

    -3.5261  -1.3761   2.1159   2.2902

          k =-0.0589-0.5303 0.6482 (  6933 PWs)   bands (ev):

    -2.9877  -1.9445   1.6061   2.2510

          k =-0.0000-0.4714 0.5893 (  6932 PWs)   bands (ev):

    -2.8795  -2.0263   1.1952   2.4200

          k =-0.7071 0.1179 0.0000 (  6938 PWs)   bands (ev):

    -2.5014  -2.5014   2.0872   2.0872

          k =-0.2357-0.4714 0.7071 (  6951 PWs)   bands (ev):

    -4.1662  -0.5892   1.7482   2.8392

          k =-0.1768-0.4125 0.6482 (  6927 PWs)   bands (ev):

    -3.6344  -1.2596   1.4411   2.5607

          k =-0.1179-0.3536 0.5893 (  6920 PWs)   bands (ev):

    -3.3370  -1.6153   1.3517   2.4535

          k =-0.1179-0.4714 0.7071 (  6912 PWs)   bands (ev):

    -3.3532  -1.5084   1.5846   2.1271

          k =-0.0589-0.4125 0.6482 (  6919 PWs)   bands (ev):

    -2.9127  -1.9517   1.3301   1.9954

          k = 0.0000-0.3536 0.5893 (  6927 PWs)   bands (ev):

    -3.1161  -1.7430   1.2239   2.1848

          k =-0.7071 0.2357 0.0000 (  6924 PWs)   bands (ev):

    -2.4463  -2.4463   1.7017   1.7017

          k =-0.7071 0.3536 0.0000 (  6892 PWs)   bands (ev):

    -2.4173  -2.4173   1.5361   1.5361

     highest occupied level (ev):     4.8086

!    total energy              =     -15.73107685 Ry
     Harris-Foulkes estimate   =     -15.73107685 Ry
     estimated scf accuracy    <          4.9E-14 Ry

     The total energy is the sum of the following terms:

     one-electron contribution =       3.71356979 Ry
     hartree contribution      =       1.22320462 Ry
     xc contribution           =      -4.66464703 Ry
     ewald contribution        =     -16.00320422 Ry

     convergence has been achieved in  10 iterations

     Writing output data file si.save

     init_run     :      1.10s CPU      1.16s WALL (       1 calls)
     electrons    :     22.01s CPU     22.94s WALL (       1 calls)

     Called by init_run:
     wfcinit      :      0.93s CPU      0.99s WALL (       1 calls)
     potinit      :      0.05s CPU      0.05s WALL (       1 calls)

     Called by electrons:
     c_bands      :     19.07s CPU     19.94s WALL (      11 calls)
     sum_band     :      2.56s CPU      2.60s WALL (      11 calls)
     v_of_rho     :      0.32s CPU      0.33s WALL (      11 calls)
     mix_rho      :      0.07s CPU      0.07s WALL (      11 calls)

     Called by c_bands:
     init_us_2    :      0.64s CPU      0.60s WALL (    1656 calls)
     ccgdiagg     :     15.03s CPU     15.68s WALL (     792 calls)
     wfcrot       :      4.46s CPU      4.71s WALL (     720 calls)

     Called by sum_band:

     Called by *cgdiagg:
     h_psi        :     17.91s CPU     18.78s WALL (   10538 calls)
     cdiaghg      :      0.03s CPU      0.05s WALL (     720 calls)

     Called by h_psi:
     add_vuspsi   :      0.19s CPU      0.27s WALL (   10538 calls)
     h_1psi       :     13.65s CPU     14.28s WALL (    9818 calls)

     General routines
     calbec       :      0.66s CPU      0.78s WALL (   20356 calls)
     fft          :      0.13s CPU      0.14s WALL (     122 calls)
     fftw         :     18.09s CPU     18.23s WALL (   29140 calls)
     davcio       :      0.00s CPU      0.00s WALL (      72 calls)

     Parallel routines
     fft_scatter  :      2.18s CPU      2.88s WALL (   29262 calls)

     PWSCF        :    23.34s CPU        24.35s WALL


   This run was terminated on:   9:15:40   5Apr2016            

=------------------------------------------------------------------------------=
   JOB DONE.
=------------------------------------------------------------------------------=
